
                                 *****************
                                 * O   R   C   A *
                                 *****************

           --- An Ab Initio, DFT and Semiempirical electronic structure package ---

                  #######################################################
                  #                        -***-                        #
                  #          Department of theory and spectroscopy      #
                  #               Directorship: Frank Neese             #
                  #        Max Planck Institute fuer Kohlenforschung    #
                  #                Kaiser Wilhelm Platz 1               #
                  #                 D-45470 Muelheim/Ruhr               #
                  #                      Germany                        #
                  #                                                     #
                  #                  All rights reserved                #
                  #                        -***-                        #
                  #######################################################


                         Program Version 4.2.1 -  RELEASE  -


 With contributions from (in alphabetic order):
   Daniel Aravena         : Magnetic Suceptibility
   Michael Atanasov       : Ab Initio Ligand Field Theory (pilot matlab implementation)
   Alexander A. Auer      : GIAO ZORA, VPT2
   Ute Becker             : Parallelization
   Giovanni Bistoni       : ED, misc. LED, open-shell LED, HFLD
   Martin Brehm           : Molecular dynamics
   Dmytro Bykov           : SCF Hessian
   Vijay G. Chilkuri      : MRCI spin determinant printing, contributions to CSF-ICE
   Dipayan Datta          : RHF DLPNO-CCSD density
   Achintya Kumar Dutta   : EOM-CC, STEOM-CC
   Dmitry Ganyushin       : Spin-Orbit,Spin-Spin,Magnetic field MRCI
   Miquel Garcia          : C-PCM Hessian, Gaussian charge scheme
   Yang Guo               : DLPNO-NEVPT2, CIM, IAO-localization
   Andreas Hansen         : Spin unrestricted coupled pair/coupled cluster methods
   Benjamin Helmich-Paris : CASSCF linear response (MC-RPA)
   Lee Huntington         : MR-EOM, pCC
   Robert Izsak           : Overlap fitted RIJCOSX, COSX-SCS-MP3, EOM
   Christian Kollmar      : KDIIS, OOCD, Brueckner-CCSD(T), CCSD density
   Simone Kossmann        : Meta GGA functionals, TD-DFT gradient, OOMP2, MP2 Hessian
   Martin Krupicka        : AUTO-CI
   Lucas Lang             : DCDCAS
   Dagmar Lenk            : GEPOL surface, SMD
   Dimitrios Liakos       : Extrapolation schemes; Compound Job, initial MDCI parallelization
   Dimitrios Manganas     : Further ROCIS development; embedding schemes
   Dimitrios Pantazis     : SARC Basis sets
   Taras Petrenko         : DFT Hessian,TD-DFT gradient, ASA, ECA, R-Raman, ABS, FL, XAS/XES, NRVS
   Peter Pinski           : DLPNO-MP2, DLPNO-MP2 Gradient
   Christoph Reimann      : Effective Core Potentials
   Marius Retegan         : Local ZFS, SOC
   Christoph Riplinger    : Optimizer, TS searches, QM/MM, DLPNO-CCSD(T), (RO)-DLPNO pert. Triples
   Tobias Risthaus        : Range-separated hybrids, TD-DFT gradient, RPA, STAB
   Michael Roemelt        : Original ROCIS implementation
   Masaaki Saitow         : Open-shell DLPNO-CCSD energy and density
   Barbara Sandhoefer     : DKH picture change effects
   Avijit Sen             : IP-ROCIS
   Kantharuban Sivalingam : CASSCF convergence, NEVPT2, FIC-MRCI
   Bernardo de Souza      : ESD, SOC TD-DFT
   Georgi Stoychev        : AutoAux, RI-MP2 NMR
   Willem Van den Heuvel  : Paramagnetic NMR
   Boris Wezisla          : Elementary symmetry handling
   Frank Wennmohs         : Technical directorship


 We gratefully acknowledge several colleagues who have allowed us to
 interface, adapt or use parts of their codes:
   Stefan Grimme, W. Hujo, H. Kruse,             : VdW corrections, initial TS optimization,
                  C. Bannwarth                     DFT functionals, gCP, sTDA/sTD-DF
   Ed Valeev, F. Pavosevic, A. Kumar             : LibInt (2-el integral package), F12 methods
   Garnet Chan, S. Sharma, J. Yang, R. Olivares  : DMRG
   Ulf Ekstrom                                   : XCFun DFT Library
   Mihaly Kallay                                 : mrcc  (arbitrary order and MRCC methods)
   Andreas Klamt, Michael Diedenhofen            : otool_cosmo (COSMO solvation model)
   Jiri Pittner, Ondrej Demel                    : Mk-CCSD
   Frank Weinhold                                : gennbo (NPA and NBO analysis)
   Christopher J. Cramer and Donald G. Truhlar   : smd solvation model
   Lars Goerigk                                  : TD-DFT with DH, B97 family of functionals
   V. Asgeirsson, H. Jonsson                     : NEB implementation
   FAccTs GmbH                                   : IRC, NEB, NEB-TS, Multilevel, MM, QM/MM, CI optimization
   S Lehtola, MJT Oliveira, MAL Marques          : LibXC Library


 Your calculation uses the libint2 library for the computation of 2-el integrals
 For citations please refer to: http://libint.valeyev.net

 Your ORCA version has been built with support for libXC version: 4.2.3
 For citations please refer to: https://tddft.org/programs/libxc/

 This ORCA versions uses:
   CBLAS   interface :  Fast vector & matrix operations
   LAPACKE interface :  Fast linear algebra routines
   SCALAPACK package :  Parallel linear algebra routines


Your calculation utilizes the atom-pairwise dispersion correction
with the Becke-Johnson damping scheme (D3BJ)
Cite in your paper:
S.Grimme, S.Ehrlich, L.Goerigk, J Comput Chem, (2011), 32, 1456–1465 
S.Grimme, J.Antony, S.Ehrlich and H.Krieg, J.Chem.Phys., 132, (2010), 154104 
   

----- Orbital basis set information -----
Your calculation utilizes the basis: ZORA-TZVP 

----- AuxJ basis set information -----
Your calculation utilizes the AutoAux generation procedure.
  G. L. Stoychev, A. A. Auer, F. Neese, J. Chem. Theory Comput. 13, 554 (2017)

----- AuxC basis set information -----
Your calculation utilizes the AutoAux generation procedure.
  G. L. Stoychev, A. A. Auer, F. Neese, J. Chem. Theory Comput. 13, 554 (2017)

----- AuxJK basis set information -----
Your calculation utilizes the AutoAux generation procedure.
  G. L. Stoychev, A. A. Auer, F. Neese, J. Chem. Theory Comput. 13, 554 (2017)

================================================================================
                                        WARNINGS
                       Please study these warnings very carefully!
================================================================================


WARNING: CIS/ROCIS methods need fully converged wavefunctions
  ===> : Setting SCFConvForced true
         You can overwrite this default with %scf ConvForced false 


INFO   : the flag for use of LIBINT has been found!

================================================================================
                                       INPUT FILE
================================================================================
NAME = AB_4A.inp
|  1> ! wb97m-d3bj zora-tzvp autoaux rijcosx veryTightSCF Grid4 nofinalgrid zora
|  2> ! NormalPrint
|  3> 
|  4> %maxcore 7500
|  5> %pal
|  6> nprocs 96
|  7> end
|  8> 
|  9> %rocis NRoots 200
| 10> MaxDim   10
| 11> maxcore  10000
| 12> MaxIter  50
| 13> RTol     1e-6
| 14> DoPNO    true
| 15> TcutPNO  1e-11
| 16> XASElems 6
| 17> OrbWin = 7,24,0,330
| 18> doquad true
| 19> DoDFTCIS true
| 20> DFTCIS_c = 0.18, 0.20, 0.40
| 21> end
| 22> 
| 23> 
| 24> * xyz 0 1
| 25> N        -1.161000    3.380000    2.222000
| 26> C        -0.029000    3.640000    1.356000
| 27> C         0.140000    5.138000    1.152000
| 28> O         1.439000    5.661000    1.295000
| 29> O        -0.871000    5.781000    0.877000
| 30> C        -0.222000    3.000000   -0.010000
| 31> C        -0.206000    1.490000   -0.011000
| 32> C        -1.411000    0.777000   -0.003000
| 33> C         1.014000    0.803000   -0.021000
| 34> C         1.029000   -0.598000   -0.023000
| 35> C        -0.176000   -1.310000   -0.014000
| 36> C        -1.397000   -0.623000   -0.005000
| 37> H         0.874000    3.237000    1.816000
| 38> H         0.578000    3.348000   -0.663000
| 39> H        -1.174000    3.337000   -0.420000
| 40> H        -2.352000    1.307000    0.004000
| 41> H         1.943000    1.352000   -0.027000
| 42> H         1.969000   -1.128000   -0.030000
| 43> H        -0.166000   -2.390000   -0.016000
| 44> H        -2.325000   -1.173000    0.001000
| 45> H        -1.265000    2.383000    2.352000
| 46> H        -1.008000    3.821000    3.118000
| 47> H         1.422000    6.609000    1.146000
| 48> N         0.111000    4.962000   -5.408000
| 49> C         0.136000    3.503000   -5.385000
| 50> C        -0.956000    3.021000   -6.338000
| 51> O        -2.077000    3.460000   -6.439000
| 52> O        -0.516000    2.005000   -7.088000
| 53> C        -0.178000    2.969000   -3.970000
| 54> C        -0.177000    1.478000   -3.961000
| 55> C        -1.382000    0.770000   -3.951000
| 56> C         1.042000    0.791000   -3.981000
| 57> C         1.067000   -0.598000   -3.975000
| 58> C        -0.150000   -1.282000   -3.930000
| 59> O        -0.063000   -2.640000   -3.916000
| 60> C        -1.380000   -0.621000   -3.932000
| 61> H        -0.805000    5.407000   -5.348000
| 62> H         1.154000    3.130000   -5.707000
| 63> H         0.579000    3.377000   -3.263000
| 64> H        -1.141000    3.381000   -3.602000
| 65> H        -2.334000    1.310000   -3.957000
| 66> H         1.982000    1.348000   -3.996000
| 67> H         2.008000   -1.146000   -3.999000
| 68> H        -2.314000   -1.180000   -3.931000
| 69> H        -0.848000   -3.063000   -3.471000
| 70> H        -1.200000    1.616000   -7.712000
| 71> H         0.540000    5.262000   -6.273000
| 72> *
| 73> 
| 74>                          ****END OF INPUT****
================================================================================

                       ****************************
                       * Single Point Calculation *
                       ****************************

---------------------------------
CARTESIAN COORDINATES (ANGSTROEM)
---------------------------------
  N     -1.161000    3.380000    2.222000
  C     -0.029000    3.640000    1.356000
  C      0.140000    5.138000    1.152000
  O      1.439000    5.661000    1.295000
  O     -0.871000    5.781000    0.877000
  C     -0.222000    3.000000   -0.010000
  C     -0.206000    1.490000   -0.011000
  C     -1.411000    0.777000   -0.003000
  C      1.014000    0.803000   -0.021000
  C      1.029000   -0.598000   -0.023000
  C     -0.176000   -1.310000   -0.014000
  C     -1.397000   -0.623000   -0.005000
  H      0.874000    3.237000    1.816000
  H      0.578000    3.348000   -0.663000
  H     -1.174000    3.337000   -0.420000
  H     -2.352000    1.307000    0.004000
  H      1.943000    1.352000   -0.027000
  H      1.969000   -1.128000   -0.030000
  H     -0.166000   -2.390000   -0.016000
  H     -2.325000   -1.173000    0.001000
  H     -1.265000    2.383000    2.352000
  H     -1.008000    3.821000    3.118000
  H      1.422000    6.609000    1.146000
  N      0.111000    4.962000   -5.408000
  C      0.136000    3.503000   -5.385000
  C     -0.956000    3.021000   -6.338000
  O     -2.077000    3.460000   -6.439000
  O     -0.516000    2.005000   -7.088000
  C     -0.178000    2.969000   -3.970000
  C     -0.177000    1.478000   -3.961000
  C     -1.382000    0.770000   -3.951000
  C      1.042000    0.791000   -3.981000
  C      1.067000   -0.598000   -3.975000
  C     -0.150000   -1.282000   -3.930000
  O     -0.063000   -2.640000   -3.916000
  C     -1.380000   -0.621000   -3.932000
  H     -0.805000    5.407000   -5.348000
  H      1.154000    3.130000   -5.707000
  H      0.579000    3.377000   -3.263000
  H     -1.141000    3.381000   -3.602000
  H     -2.334000    1.310000   -3.957000
  H      1.982000    1.348000   -3.996000
  H      2.008000   -1.146000   -3.999000
  H     -2.314000   -1.180000   -3.931000
  H     -0.848000   -3.063000   -3.471000
  H     -1.200000    1.616000   -7.712000
  H      0.540000    5.262000   -6.273000

----------------------------
CARTESIAN COORDINATES (A.U.)
----------------------------
  NO LB      ZA    FRAG     MASS         X           Y           Z
   0 N     7.0000    0    14.007   -2.193972    6.387274    4.198971
   1 C     6.0000    0    12.011   -0.054802    6.878603    2.562469
   2 C     6.0000    0    12.011    0.264562    9.709413    2.176965
   3 O     8.0000    0    15.999    2.719316   10.697740    2.447195
   4 O     8.0000    0    15.999   -1.645951   10.924507    1.657290
   5 C     6.0000    0    12.011   -0.419519    5.669178   -0.018897
   6 C     6.0000    0    12.011   -0.389284    2.815692   -0.020787
   7 C     6.0000    0    12.011   -2.666404    1.468317   -0.005669
   8 C     6.0000    0    12.011    1.916182    1.517450   -0.039684
   9 C     6.0000    0    12.011    1.944528   -1.130056   -0.043464
  10 C     6.0000    0    12.011   -0.332592   -2.475541   -0.026456
  11 C     6.0000    0    12.011   -2.639947   -1.177299   -0.009449
  12 H     1.0000    0     1.008    1.651621    6.117043    3.431743
  13 H     1.0000    0     1.008    1.092262    6.326803   -1.252888
  14 H     1.0000    0     1.008   -2.218538    6.306016   -0.793685
  15 H     1.0000    0     1.008   -4.444636    2.469872    0.007559
  16 H     1.0000    0     1.008    3.671738    2.554910   -0.051023
  17 H     1.0000    0     1.008    3.720871   -2.131611   -0.056692
  18 H     1.0000    0     1.008   -0.313695   -4.516445   -0.030236
  19 H     1.0000    0     1.008   -4.393613   -2.216649    0.001890
  20 H     1.0000    0     1.008   -2.390504    4.503217    4.444636
  21 H     1.0000    0     1.008   -1.904844    7.220644    5.892166
  22 H     1.0000    0     1.008    2.687191   12.489200    2.165626
  23 N     7.0000    0    14.007    0.209760    9.376821  -10.219639
  24 C     6.0000    0    12.011    0.257003    6.619711  -10.176175
  25 C     6.0000    0    12.011   -1.806578    5.708863  -11.977084
  26 O     8.0000    0    15.999   -3.924961    6.538452  -12.167947
  27 O     8.0000    0    15.999   -0.975099    3.788901  -13.394379
  28 C     6.0000    0    12.011   -0.336371    5.610597   -7.502213
  29 C     6.0000    0    12.011   -0.334482    2.793015   -7.485205
  30 C     6.0000    0    12.011   -2.611602    1.455089   -7.466308
  31 C     6.0000    0    12.011    1.969095    1.494773   -7.523000
  32 C     6.0000    0    12.011    2.016338   -1.130056   -7.511661
  33 C     6.0000    0    12.011   -0.283459   -2.422629   -7.426624
  34 O     8.0000    0    15.999   -0.119053   -4.988877   -7.400168
  35 C     6.0000    0    12.011   -2.607822   -1.173520   -7.430403
  36 H     1.0000    0     1.008   -1.521230   10.217749  -10.106255
  37 H     1.0000    0     1.008    2.180744    5.914843  -10.784667
  38 H     1.0000    0     1.008    1.094151    6.381605   -6.166176
  39 H     1.0000    0     1.008   -2.156178    6.389164   -6.806794
  40 H     1.0000    0     1.008   -4.410621    2.475541   -7.477646
  41 H     1.0000    0     1.008    3.745437    2.547351   -7.551346
  42 H     1.0000    0     1.008    3.794570   -2.165626   -7.557015
  43 H     1.0000    0     1.008   -4.372826   -2.229877   -7.428513
  44 H     1.0000    0     1.008   -1.602488   -5.788231   -6.559239
  45 H     1.0000    0     1.008   -2.267671    3.053797  -14.573568
  46 H     1.0000    0     1.008    1.020452    9.943739  -11.854252

--------------------------------
INTERNAL COORDINATES (ANGSTROEM)
--------------------------------
 N      0   0   0     0.000000000000     0.00000000     0.00000000
 C      1   0   0     1.448785698439     0.00000000     0.00000000
 C      2   1   0     1.521243241563   110.10114448     0.00000000
 O      3   2   1     1.407614648972   117.05022556   133.02971254
 O      3   2   1     1.229306715185   116.98139621   313.01740300
 C      2   1   3     1.520790912650   111.23661411   240.38625410
 C      6   2   1     1.510085096940   114.83838268   292.44353425
 C      7   6   2     1.400163561874   120.00497330    97.92281875
 C      7   6   2     1.400167489981   119.99105042   277.87218597
 C      9   7   6     1.401081724954   119.99772222   180.05056857
 C     10   9   7     1.399660673163   119.96287959   359.95287817
 C      8   7   6     1.400071426749   120.03880233   179.94900907
 H      2   1   3     1.090604419577   109.17809817   119.84107938
 H      6   2   1     1.089730700678   108.10031629   171.64548782
 H      6   2   1     1.089941741562   108.57875707    54.14358701
 H      8   7   6     1.080013888800   119.99881670     0.00000000
 H      9   7   6     1.079109818322   120.03546327     0.06097034
 H     10   9   7     1.079142715307   120.02890285   180.04328364
 H     11  10   9     1.080048147075   120.04559347   179.97112658
 H     12   8   7     1.078758545737   120.08004065   180.00980655
 H      1   2   3     1.010804135330   109.52857315   180.02945076
 H      1   2   3     1.010299955459   109.47858171   299.97462776
 H      4   3   2     0.959788518373   109.56465473   180.09342224
 N     14   6   2     5.033697448198   126.80897701   225.07719221
 C     24  14   6     1.459395422769    70.30594821   278.71488363
 C     25  24  14     1.527415136759   107.06162666   136.43330939
 O     26  25  24     1.208123751939   126.93214213   316.77019493
 O     26  25  24     1.337294283245   110.75917532   136.86541163
 C     25  24  14     1.544660804190   110.88957769    18.25599094
 C     29  25  24     1.491027498070   110.55422417   178.88500017
 C     30  29  25     1.397636934257   120.39941338   257.17422522
 C     30  29  25     1.399403444329   119.43345498    76.31117143
 C     32  30  29     1.389237920588   120.42787141   180.09121027
 C     33  32  30     1.396771276910   118.29925086   359.13144361
 O     34  33  32     1.360855980624   115.67731631   180.47965820
 C     31  30  29     1.391131194388   120.35656436   180.50634926
 H     24  14   6     1.020137735798    99.65583538    33.83531512
 H     25  24  14     1.130989389871   109.91601843   257.34556084
 H     29  25  24     1.113266365251   108.47161050   301.09901388
 H     29  25  24     1.110196829396   110.59031544    54.64763915
 H     31  30  29     1.094504454080   119.99654336     0.43888147
 H     32  30  29     1.092736930830   119.95289973     0.42333481
 H     33  32  30     1.089202001467   121.23076552   179.46835982
 H     36  31  30     1.088502641246   120.81581999   180.42229923
 H     35  34  33     0.996583664325   112.19720479   153.20413588
 H     28  26  25     1.004267394671   114.75016605   177.62869189
 H     24  14   6     1.011071708634   149.56842057   187.23953877

---------------------------
INTERNAL COORDINATES (A.U.)
---------------------------
 N      0   0   0     0.000000000000     0.00000000     0.00000000
 C      1   0   0     2.737808196791     0.00000000     0.00000000
 C      2   1   0     2.874733109632   110.10114448     0.00000000
 O      3   2   1     2.660006188652   117.05022556   133.02971254
 O      3   2   1     2.323053026291   116.98139621   313.01740300
 C      2   1   3     2.873878331865   111.23661411   240.38625410
 C      6   2   1     2.853647272132   114.83838268   292.44353425
 C      7   6   2     2.645925674638   120.00497330    97.92281875
 C      7   6   2     2.645933097684   119.99105042   277.87218597
 C      9   7   6     2.647660751405   119.99772222   180.05056857
 C     10   9   7     2.644975352699   119.96287959   359.95287817
 C      8   7   6     2.645751564485   120.03880233   179.94900907
 H      2   1   3     2.060943673444   109.17809817   119.84107938
 H      6   2   1     2.059292584007   108.10031629   171.64548782
 H      6   2   1     2.059691393482   108.57875707    54.14358701
 H      8   7   6     2.040930470662   119.99881670     0.00000000
 H      9   7   6     2.039222025055   120.03546327     0.06097034
 H     10   9   7     2.039284191346   120.02890285   180.04328364
 H     11  10   9     2.040995209421   120.04559347   179.97112658
 H     12   8   7     2.038558216070   120.08004065   180.00980655
 H      1   2   3     1.910142990809   109.52857315   180.02945076
 H      1   2   3     1.909190228930   109.47858171   299.97462776
 H      4   3   2     1.813737446206   109.56465473   180.09342224
 N     14   6   2     9.512309618113   126.80897701   225.07719221
 C     24  14   6     2.757857670132    70.30594821   278.71488363
 C     25  24  14     2.886396301280   107.06162666   136.43330939
 O     26  25  24     2.283023027051   126.93214213   316.77019493
 O     26  25  24     2.527119955792   110.75917532   136.86541163
 C     25  24  14     2.918985889721   110.88957769    18.25599094
 C     29  25  24     2.817633629498   110.55422417   178.88500017
 C     30  29  25     2.641151040400   120.39941338   257.17422522
 C     30  29  25     2.644489260648   119.43345498    76.31117143
 C     32  30  29     2.625279204770   120.42787141   180.09121027
 C     33  32  30     2.639515185087   118.29925086   359.13144361
 O     34  33  32     2.571645111088   115.67731631   180.47965820
 C     31  30  29     2.628856973749   120.35656436   180.50634926
 H     24  14   6     1.927780939538    99.65583538    33.83531512
 H     25  24  14     2.137260207226   109.91601843   257.34556084
 H     29  25  24     2.103768544431   108.47161050   301.09901388
 H     29  25  24     2.097967962305   110.59031544    54.64763915
 H     31  30  29     2.068313670567   119.99654336     0.43888147
 H     32  30  29     2.064973535691   119.95289973     0.42333481
 H     33  32  30     2.058293487292   121.23076552   179.46835982
 H     36  31  30     2.056971888005   120.81581999   180.42229923
 H     35  34  33     1.883270195114   112.19720479   153.20413588
 H     28  26  25     1.897790341155   114.75016605   177.62869189
 H     24  14   6     1.910648631074   149.56842057   187.23953877

---------------------
BASIS SET INFORMATION
---------------------
There are 4 groups of distinct atoms

 Group   1 Type N   : 11s6p1d contracted to 6s3p1d pattern {611111/411/1}
 Group   2 Type C   : 11s6p1d contracted to 6s3p1d pattern {611111/411/1}
 Group   3 Type O   : 11s6p1d contracted to 6s3p1d pattern {611111/411/1}
 Group   4 Type H   : 5s1p contracted to 3s1p pattern {311/1}

Atom   0N    basis set group =>   1
Atom   1C    basis set group =>   2
Atom   2C    basis set group =>   2
Atom   3O    basis set group =>   3
Atom   4O    basis set group =>   3
Atom   5C    basis set group =>   2
Atom   6C    basis set group =>   2
Atom   7C    basis set group =>   2
Atom   8C    basis set group =>   2
Atom   9C    basis set group =>   2
Atom  10C    basis set group =>   2
Atom  11C    basis set group =>   2
Atom  12H    basis set group =>   4
Atom  13H    basis set group =>   4
Atom  14H    basis set group =>   4
Atom  15H    basis set group =>   4
Atom  16H    basis set group =>   4
Atom  17H    basis set group =>   4
Atom  18H    basis set group =>   4
Atom  19H    basis set group =>   4
Atom  20H    basis set group =>   4
Atom  21H    basis set group =>   4
Atom  22H    basis set group =>   4
Atom  23N    basis set group =>   1
Atom  24C    basis set group =>   2
Atom  25C    basis set group =>   2
Atom  26O    basis set group =>   3
Atom  27O    basis set group =>   3
Atom  28C    basis set group =>   2
Atom  29C    basis set group =>   2
Atom  30C    basis set group =>   2
Atom  31C    basis set group =>   2
Atom  32C    basis set group =>   2
Atom  33C    basis set group =>   2
Atom  34O    basis set group =>   3
Atom  35C    basis set group =>   2
Atom  36H    basis set group =>   4
Atom  37H    basis set group =>   4
Atom  38H    basis set group =>   4
Atom  39H    basis set group =>   4
Atom  40H    basis set group =>   4
Atom  41H    basis set group =>   4
Atom  42H    basis set group =>   4
Atom  43H    basis set group =>   4
Atom  44H    basis set group =>   4
Atom  45H    basis set group =>   4
Atom  46H    basis set group =>   4
---------------------------------
AUXILIARY/J BASIS SET INFORMATION
---------------------------------
There are 4 groups of distinct atoms

 Group   1 Type N   : 16s13p12d3f contracted to 16s13p12d3f pattern {1111111111111111/1111111111111/111111111111/111}
 Group   2 Type C   : 16s13p12d2f contracted to 16s13p12d2f pattern {1111111111111111/1111111111111/111111111111/11}
 Group   3 Type O   : 16s13p12d3f contracted to 16s13p12d3f pattern {1111111111111111/1111111111111/111111111111/111}
 Group   4 Type H   : 11s3p1d contracted to 11s3p1d pattern {11111111111/111/1}

Atom   0N    basis set group =>   1
Atom   1C    basis set group =>   2
Atom   2C    basis set group =>   2
Atom   3O    basis set group =>   3
Atom   4O    basis set group =>   3
Atom   5C    basis set group =>   2
Atom   6C    basis set group =>   2
Atom   7C    basis set group =>   2
Atom   8C    basis set group =>   2
Atom   9C    basis set group =>   2
Atom  10C    basis set group =>   2
Atom  11C    basis set group =>   2
Atom  12H    basis set group =>   4
Atom  13H    basis set group =>   4
Atom  14H    basis set group =>   4
Atom  15H    basis set group =>   4
Atom  16H    basis set group =>   4
Atom  17H    basis set group =>   4
Atom  18H    basis set group =>   4
Atom  19H    basis set group =>   4
Atom  20H    basis set group =>   4
Atom  21H    basis set group =>   4
Atom  22H    basis set group =>   4
Atom  23N    basis set group =>   1
Atom  24C    basis set group =>   2
Atom  25C    basis set group =>   2
Atom  26O    basis set group =>   3
Atom  27O    basis set group =>   3
Atom  28C    basis set group =>   2
Atom  29C    basis set group =>   2
Atom  30C    basis set group =>   2
Atom  31C    basis set group =>   2
Atom  32C    basis set group =>   2
Atom  33C    basis set group =>   2
Atom  34O    basis set group =>   3
Atom  35C    basis set group =>   2
Atom  36H    basis set group =>   4
Atom  37H    basis set group =>   4
Atom  38H    basis set group =>   4
Atom  39H    basis set group =>   4
Atom  40H    basis set group =>   4
Atom  41H    basis set group =>   4
Atom  42H    basis set group =>   4
Atom  43H    basis set group =>   4
Atom  44H    basis set group =>   4
Atom  45H    basis set group =>   4
Atom  46H    basis set group =>   4
---------------------------------
AUXILIARY/C BASIS SET INFORMATION
---------------------------------
There are 4 groups of distinct atoms

 Group   1 Type N   : 16s13p12d3f contracted to 16s13p12d3f pattern {1111111111111111/1111111111111/111111111111/111}
 Group   2 Type C   : 16s13p12d2f contracted to 16s13p12d2f pattern {1111111111111111/1111111111111/111111111111/11}
 Group   3 Type O   : 16s13p12d3f contracted to 16s13p12d3f pattern {1111111111111111/1111111111111/111111111111/111}
 Group   4 Type H   : 11s3p1d contracted to 11s3p1d pattern {11111111111/111/1}

Atom   0N    basis set group =>   1
Atom   1C    basis set group =>   2
Atom   2C    basis set group =>   2
Atom   3O    basis set group =>   3
Atom   4O    basis set group =>   3
Atom   5C    basis set group =>   2
Atom   6C    basis set group =>   2
Atom   7C    basis set group =>   2
Atom   8C    basis set group =>   2
Atom   9C    basis set group =>   2
Atom  10C    basis set group =>   2
Atom  11C    basis set group =>   2
Atom  12H    basis set group =>   4
Atom  13H    basis set group =>   4
Atom  14H    basis set group =>   4
Atom  15H    basis set group =>   4
Atom  16H    basis set group =>   4
Atom  17H    basis set group =>   4
Atom  18H    basis set group =>   4
Atom  19H    basis set group =>   4
Atom  20H    basis set group =>   4
Atom  21H    basis set group =>   4
Atom  22H    basis set group =>   4
Atom  23N    basis set group =>   1
Atom  24C    basis set group =>   2
Atom  25C    basis set group =>   2
Atom  26O    basis set group =>   3
Atom  27O    basis set group =>   3
Atom  28C    basis set group =>   2
Atom  29C    basis set group =>   2
Atom  30C    basis set group =>   2
Atom  31C    basis set group =>   2
Atom  32C    basis set group =>   2
Atom  33C    basis set group =>   2
Atom  34O    basis set group =>   3
Atom  35C    basis set group =>   2
Atom  36H    basis set group =>   4
Atom  37H    basis set group =>   4
Atom  38H    basis set group =>   4
Atom  39H    basis set group =>   4
Atom  40H    basis set group =>   4
Atom  41H    basis set group =>   4
Atom  42H    basis set group =>   4
Atom  43H    basis set group =>   4
Atom  44H    basis set group =>   4
Atom  45H    basis set group =>   4
Atom  46H    basis set group =>   4
----------------------------------
AUXILIARY/JK BASIS SET INFORMATION
----------------------------------
There are 4 groups of distinct atoms

 Group   1 Type N   : 16s13p12d3f contracted to 16s13p12d3f pattern {1111111111111111/1111111111111/111111111111/111}
 Group   2 Type C   : 16s13p12d2f contracted to 16s13p12d2f pattern {1111111111111111/1111111111111/111111111111/11}
 Group   3 Type O   : 16s13p12d3f contracted to 16s13p12d3f pattern {1111111111111111/1111111111111/111111111111/111}
 Group   4 Type H   : 11s3p1d contracted to 11s3p1d pattern {11111111111/111/1}

Atom   0N    basis set group =>   1
Atom   1C    basis set group =>   2
Atom   2C    basis set group =>   2
Atom   3O    basis set group =>   3
Atom   4O    basis set group =>   3
Atom   5C    basis set group =>   2
Atom   6C    basis set group =>   2
Atom   7C    basis set group =>   2
Atom   8C    basis set group =>   2
Atom   9C    basis set group =>   2
Atom  10C    basis set group =>   2
Atom  11C    basis set group =>   2
Atom  12H    basis set group =>   4
Atom  13H    basis set group =>   4
Atom  14H    basis set group =>   4
Atom  15H    basis set group =>   4
Atom  16H    basis set group =>   4
Atom  17H    basis set group =>   4
Atom  18H    basis set group =>   4
Atom  19H    basis set group =>   4
Atom  20H    basis set group =>   4
Atom  21H    basis set group =>   4
Atom  22H    basis set group =>   4
Atom  23N    basis set group =>   1
Atom  24C    basis set group =>   2
Atom  25C    basis set group =>   2
Atom  26O    basis set group =>   3
Atom  27O    basis set group =>   3
Atom  28C    basis set group =>   2
Atom  29C    basis set group =>   2
Atom  30C    basis set group =>   2
Atom  31C    basis set group =>   2
Atom  32C    basis set group =>   2
Atom  33C    basis set group =>   2
Atom  34O    basis set group =>   3
Atom  35C    basis set group =>   2
Atom  36H    basis set group =>   4
Atom  37H    basis set group =>   4
Atom  38H    basis set group =>   4
Atom  39H    basis set group =>   4
Atom  40H    basis set group =>   4
Atom  41H    basis set group =>   4
Atom  42H    basis set group =>   4
Atom  43H    basis set group =>   4
Atom  44H    basis set group =>   4
Atom  45H    basis set group =>   4
Atom  46H    basis set group =>   4


           ************************************************************
           *        Program running with 96 parallel MPI-processes    *
           *            working without local directories             *
           ************************************************************
------------------------------------------------------------------------------
                           ORCA GTO INTEGRAL CALCULATION
                           -- RI-GTO INTEGRALS CHOSEN --
------------------------------------------------------------------------------

                         BASIS SET STATISTICS AND STARTUP INFO

Gaussian basis set:
 # of primitive gaussian shells          ...  582
 # of primitive gaussian functions       ... 1026
 # of contracted shells                  ...  338
 # of contracted basis functions         ...  632
 Highest angular momentum                ...    2
 Maximum contraction depth               ...    6
Auxiliary gaussian basis set:
 # of primitive gaussian shells          ... 1412
 # of primitive gaussian functions       ... 3824
 # of contracted shells                  ... 1412
 # of contracted aux-basis functions     ... 3824
 Highest angular momentum                ...    3
 Maximum contraction depth               ...    1
Ratio of auxiliary to basis functions    ...  6.05
Integral package used                  ... LIBINT
 One Electron integrals                  ... done
 Ordering auxiliary basis shells         ... done
 Integral threshhold             Thresh  ...  1.000e-12
 Primitive cut-off               TCut    ...  1.000e-14
 Pre-screening matrix                    ... done
 Shell pair data                         ... 
 Ordering of the shell pairs             ... done (   0.007 sec) 36678 of 57291 pairs
 Determination of significant pairs      ... done (   0.000 sec)
 Creation of shell pair data             ... done (   0.004 sec)
 Storage of shell pair data              ... done (   0.066 sec)
 Shell pair data done in (   0.077 sec)
 Computing two index integrals           ... done
 Cholesky decomposition of the V-matrix  ... done


Timings:
 Total evaluation time                   ...   2.926 sec (  0.049 min)
 One electron matrix time                ...   0.264 sec (  0.004 min) =  9.0%
 Schwartz matrix evaluation time         ...   0.264 sec (  0.004 min) =  9.0%
 Two index repulsion integral time       ...   0.222 sec (  0.004 min) =  7.6%
 Cholesky decomposition of V             ...   2.083 sec (  0.035 min) = 71.2%
 Three index repulsion integral time     ...   0.001 sec (  0.000 min) =  0.0%



           ************************************************************
           *        Program running with 96 parallel MPI-processes    *
           *            working without local directories             *
           ************************************************************
------------------------------------------------------------------------------
                          ORCA RELATIVISTIC HAMILTONIAN
------------------------------------------------------------------------------

Relativistic Method            ... ZORA(MP)
Treatment of potential         ... Van Wuellen
Nucleus model                  ... Point Nucleus
Speed of light used            ... 137.03598950000000


            *************************************************
            *         ZERO ORDER REGULAR APPROXIMATION      *
            *                     ZORA(MP)                  *
            *            Programmed by FN according to      *
            *                   C. van Wuellen              *
            *       J. Chem. Phys. (1998) vol 109, 392-399  *
            *************************************************

Terms included in model potential: +V(e,N)+V(C)+V(Xa)+V(VWN-V)
Basis function cutoff value   ... 1.000000e-12
Loading the fitted atomic densities (ZORA)   ... done
Calculating the cutoffs                      ... done
Number of fit functions                      ... 385
Setting up the integration grid ... done


           ************************************************************
           *        Program running with 96 parallel MPI-processes    *
           *            working without local directories             *
           ************************************************************
-------------------------------------------------------------------------------
                                 ORCA SCF
-------------------------------------------------------------------------------

------------
SCF SETTINGS
------------
Hamiltonian:
 Density Functional     Method          .... DFT(GTOs)
 Exchange Functional    Exchange        .... WB97M-V
 Correlation Functional Correlation     .... WB97M-V
 Gradients option       PostSCFGGA      .... off
 Hybrid DFT is turned on
   Fraction HF Exchange ScalHFX         ....  0.150000
   Scaling of DF-GGA-X  ScalDFX         ....  0.000000
   Scaling of DF-GGA-C  ScalDFC         ....  1.000000
   Scaling of DF-LDA-C  ScalLDAC        ....  1.000000
   Perturbative correction              ....  0.000000
   Density functional embedding theory  .... OFF
 Long-range corrected/Screened/Range-Separated Hybrid DFT is turned on
   Amount of maximum screened exact exchange              ....  0.850000
   Range separation parameter mu (erf(mu*r12)/r12)        ....  0.300000
 RI-approximation to the Coulomb term is turned on
   Number of auxiliary basis functions  .... 3824
   RIJ-COSX (HFX calculated with COS-X)).... on

Relativistic Settings:
 Scalar relativistic method             .... ZORA
 Speed of light used       Velit        ....       137.035989
Orbital energies will be scaled


General Settings:
 Integral files         IntName         .... AB_4A
 Hartree-Fock type      HFTyp           .... RHF
 Total Charge           Charge          ....    0
 Multiplicity           Mult            ....    1
 Number of Electrons    NEL             ....  184
 Basis Dimension        Dim             ....  632
 Nuclear Repulsion      ENuc            ....   2176.5152180584 Eh

Convergence Acceleration:
 DIIS                   CNVDIIS         .... on
   Start iteration      DIISMaxIt       ....    12
   Startup error        DIISStart       ....  0.200000
   # of expansion vecs  DIISMaxEq       ....     5
   Bias factor          DIISBfac        ....   1.050
   Max. coefficient     DIISMaxC        ....  10.000
 Newton-Raphson         CNVNR           .... off
 SOSCF                  CNVSOSCF        .... on
   Start iteration      SOSCFMaxIt      ....   150
   Startup grad/error   SOSCFStart      ....  0.003300
 Level Shifting         CNVShift        .... on
   Level shift para.    LevelShift      ....    0.2500
   Turn off err/grad.   ShiftErr        ....    0.0010
 Zerner damping         CNVZerner       .... off
 Static damping         CNVDamp         .... on
   Fraction old density DampFac         ....    0.7000
   Max. Damping (<1)    DampMax         ....    0.9800
   Min. Damping (>=0)   DampMin         ....    0.0000
   Turn off err/grad.   DampErr         ....    0.1000
 Fernandez-Rico         CNVRico         .... off

SCF Procedure:
 Maximum # iterations   MaxIter         ....   125
 SCF integral mode      SCFMode         .... Direct
   Integral package                     .... LIBINT
 Reset frequency        DirectResetFreq ....    20
 Integral Threshold     Thresh          ....  1.000e-12 Eh
 Primitive CutOff       TCut            ....  1.000e-14 Eh

Convergence Tolerance:
 Convergence Check Mode ConvCheckMode   .... Total+1el-Energy
 Convergence forced     ConvForced      .... 1
 Energy Change          TolE            ....  1.000e-09 Eh
 1-El. energy change                    ....  1.000e-06 Eh
 Orbital Gradient       TolG            ....  2.000e-06
 Orbital Rotation angle TolX            ....  2.000e-06
 DIIS Error             TolErr          ....  1.000e-08


Diagonalization of the overlap matrix:
Smallest eigenvalue                        ... 5.330e-06
Time for diagonalization                   ...    0.137 sec
Threshold for overlap eigenvalues          ... 1.000e-08
Number of eigenvalues below threshold      ... 0
Time for construction of square roots      ...    0.223 sec
Total time needed                          ...    0.362 sec

-------------------
DFT GRID GENERATION
-------------------

General Integration Accuracy     IntAcc      ...  4.670
Radial Grid Type                 RadialGrid  ... Gauss-Chebyshev
Angular Grid (max. acc.)         AngularGrid ... Lebedev-302
Angular grid pruning method      GridPruning ... 3 (G Style)
Weight generation scheme         WeightScheme... Becke
Basis function cutoff            BFCut       ...    1.0000e-12
Integration weight cutoff        WCut        ...    1.0000e-14
Grids for H and He will be reduced by one unit

# of grid points (after initial pruning)     ... 229968 (   0.0 sec)
# of grid points (after weights+screening)   ... 198440 (   0.2 sec)
nearest neighbour list constructed           ...    0.0 sec
Grid point re-assignment to atoms done       ...    0.0 sec
Grid point division into batches done        ...    0.7 sec
Reduced shell lists constructed in    0.8 sec

Total number of grid points                  ...   198440
Total number of batches                      ...     3126
Average number of points per batch           ...       63
Average number of grid points per atom       ...     4222
Average number of shells per batch           ...   122.29 (36.18%)
Average number of basis functions per batch  ...   231.12 (36.57%)
Average number of large shells per batch     ...    77.06 (63.01%)
Average number of large basis fcns per batch ...   147.53 (63.83%)
Maximum spatial batch extension              ...  12.33,  7.22,  8.60 au
Average spatial batch extension              ...   0.02,  0.02,  0.02 au

Time for grid setup =    1.151 sec

------------------------------
INITIAL GUESS: MODEL POTENTIAL
------------------------------
Loading ZORA relativistic densities                ... done
Calculating cut-offs                               ... done
Setting up the integral package                    ... done
Initializing the effective Hamiltonian             ... done
Starting the Coulomb interaction                   ... done (   0.0 sec)
Reading the grid                                   ... done
Mapping shells                                     ... done
Starting the XC term evaluation                    ... done (   0.1 sec)
  promolecular density results
     # of electrons  =    183.988088954
     EX              =   -152.519482538
     EC              =     -6.147680239
     EX+EC           =   -158.667162777
Transforming the Hamiltonian                       ... done (   0.1 sec)
Diagonalizing the Hamiltonian                      ... done (   0.1 sec)
Back transforming the eigenvectors                 ... done (   0.1 sec)
Now organizing SCF variables                       ... done
                      ------------------
                      INITIAL GUESS DONE (   1.7 sec)
                      ------------------
--------------------
COSX GRID GENERATION
--------------------

General Integration Accuracy     IntAcc      ...  3.340
Radial Grid Type                 RadialGrid  ... Gauss-Chebyshev
Angular Grid (max. acc.)         AngularGrid ... Lebedev-50
Angular grid pruning method      GridPruning ... 3 (G Style)
Weight generation scheme         WeightScheme... Becke
Basis function cutoff            BFCut       ...    1.0000e-12
Integration weight cutoff        WCut        ...    1.0000e-14
Grids for H and He will be reduced by one unit

# of grid points (after initial pruning)     ...  21512 (   0.0 sec)
# of grid points (after weights+screening)   ...  19239 (   0.0 sec)
nearest neighbour list constructed           ...    0.0 sec
Grid point re-assignment to atoms done       ...    0.0 sec
Grid point division into batches done        ...    0.0 sec
Reduced shell lists constructed in    0.0 sec

Total number of grid points                  ...    19239
Total number of batches                      ...      325
Average number of points per batch           ...       59
Average number of grid points per atom       ...      409
Average number of shells per batch           ...   115.60 (34.20%)
Average number of basis functions per batch  ...   217.60 (34.43%)
Average number of large shells per batch     ...    76.00 (65.74%)
Average number of large basis fcns per batch ...   148.00 (68.01%)
Maximum spatial batch extension              ...   9.82,  4.25,  4.17 au
Average spatial batch extension              ...   0.05,  0.03,  0.03 au

Overlap Fitting                  UseSFitting ... on
Constructing numerical overlap ... done (      0.0 sec)
Inverting numerical overlap    ... done (      0.0 sec)
Obtaining analytic overlap     ... done (      0.0 sec)
Final contraction and storage  ... done (      0.1 sec)


General Integration Accuracy     IntAcc      ...  3.670
Radial Grid Type                 RadialGrid  ... Gauss-Chebyshev
Angular Grid (max. acc.)         AngularGrid ... Lebedev-50
Angular grid pruning method      GridPruning ... 3 (G Style)
Weight generation scheme         WeightScheme... Becke
Basis function cutoff            BFCut       ...    1.0000e-12
Integration weight cutoff        WCut        ...    1.0000e-14
Grids for H and He will be reduced by one unit

# of grid points (after initial pruning)     ...  27362 (   0.0 sec)
# of grid points (after weights+screening)   ...  24404 (   0.0 sec)
nearest neighbour list constructed           ...    0.0 sec
Grid point re-assignment to atoms done       ...    0.0 sec
Grid point division into batches done        ...    0.0 sec
Reduced shell lists constructed in    0.0 sec

Total number of grid points                  ...    24404
Total number of batches                      ...      403
Average number of points per batch           ...       60
Average number of grid points per atom       ...      519
Average number of shells per batch           ...   118.67 (35.11%)
Average number of basis functions per batch  ...   224.00 (35.44%)
Average number of large shells per batch     ...    78.17 (65.87%)
Average number of large basis fcns per batch ...   150.50 (67.19%)
Maximum spatial batch extension              ...  11.34,  4.09,  6.14 au
Average spatial batch extension              ...   0.05,  0.03,  0.04 au

Overlap Fitting                  UseSFitting ... on
Constructing numerical overlap ... done (      0.0 sec)
Inverting numerical overlap    ... done (      0.0 sec)
Obtaining analytic overlap     ... done (      0.0 sec)
Final contraction and storage  ... done (      0.1 sec)


General Integration Accuracy     IntAcc      ...  4.010
Radial Grid Type                 RadialGrid  ... Gauss-Chebyshev
Angular Grid (max. acc.)         AngularGrid ... Lebedev-110
Angular grid pruning method      GridPruning ... 3 (G Style)
Weight generation scheme         WeightScheme... Becke
Basis function cutoff            BFCut       ...    1.0000e-12
Integration weight cutoff        WCut        ...    1.0000e-14
Grids for H and He will be reduced by one unit

# of grid points (after initial pruning)     ...  51166 (   0.0 sec)
# of grid points (after weights+screening)   ...  45342 (   0.0 sec)
nearest neighbour list constructed           ...    0.0 sec
Grid point re-assignment to atoms done       ...    0.0 sec
Grid point division into batches done        ...    0.0 sec
Reduced shell lists constructed in    0.0 sec

Total number of grid points                  ...    45342
Total number of batches                      ...      732
Average number of points per batch           ...       61
Average number of grid points per atom       ...      965
Average number of shells per batch           ...   120.56 (35.67%)
Average number of basis functions per batch  ...   228.11 (36.09%)
Average number of large shells per batch     ...    80.56 (66.82%)
Average number of large basis fcns per batch ...   155.00 (67.95%)
Maximum spatial batch extension              ...   9.89,  4.68,  4.19 au
Average spatial batch extension              ...   0.03,  0.03,  0.02 au

Overlap Fitting                  UseSFitting ... on
Constructing numerical overlap ... done (      0.0 sec)
Inverting numerical overlap    ... done (      0.0 sec)
Obtaining analytic overlap     ... done (      0.0 sec)
Final contraction and storage  ... done (      0.1 sec)

Time for X-Grid setup             =    0.812 sec
--------------
SCF ITERATIONS
--------------
               ***  Starting incremental Fock matrix formation  ***

                         ----------------------------
                         !        ITERATION     0   !
                         ----------------------------
   Total Energy        :   -1185.657531937492 Eh
   Energy Change       :   -1185.657531937492 Eh
   MAX-DP              :       0.187493912668
   RMS-DP              :       0.001439978777
   Actual Damping      :       0.7000
   Actual Level Shift  :       0.2500 Eh
   Int. Num. El.       :   183.99961874 (UP=   91.99980937 DN=   91.99980937)
   Exchange            :  -111.19214179
   Correlation         :    -6.06638515


                         ----------------------------
                         !        ITERATION     1   !
                         ----------------------------
   Total Energy        :   -1185.997297678156 Eh
   Energy Change       :      -0.339765740664 Eh
   MAX-DP              :       0.184800204553
   RMS-DP              :       0.001207511058
   Actual Damping      :       0.7000
   Actual Level Shift  :       0.2500 Eh
   Int. Num. El.       :   183.99955823 (UP=   91.99977912 DN=   91.99977912)
   Exchange            :  -110.35885391
   Correlation         :    -6.03748981

                               ***Turning on DIIS***

                         ----------------------------
                         !        ITERATION     2   !
                         ----------------------------
   Total Energy        :   -1186.159363165336 Eh
   Energy Change       :      -0.162065487180 Eh
   MAX-DP              :       0.360320283019
   RMS-DP              :       0.002457090332
   Actual Damping      :       0.0000
   Actual Level Shift  :       0.2500 Eh
   Int. Num. El.       :   183.99950093 (UP=   91.99975046 DN=   91.99975046)
   Exchange            :  -109.81443038
   Correlation         :    -6.01395493
   DIIS-Error          :       0.065476610580


                         ----------------------------
                         !        ITERATION     3   !
                         ----------------------------
   Total Energy        :   -1186.426003750508 Eh
   Energy Change       :      -0.266640585171 Eh
   MAX-DP              :       0.097784789222
   RMS-DP              :       0.000845970074
   Actual Damping      :       0.0000
   Actual Level Shift  :       0.2500 Eh
   Int. Num. El.       :   183.99936784 (UP=   91.99968392 DN=   91.99968392)
   Exchange            :  -108.96421218
   Correlation         :    -5.96012775
   DIIS-Error          :       0.067068885013
   DIIS coefficients:
      0.41385   0.58615


                         ----------------------------
                         !        ITERATION     4   !
                         ----------------------------
   Total Energy        :   -1186.466936033546 Eh
   Energy Change       :      -0.040932283038 Eh
   MAX-DP              :       0.016217333093
   RMS-DP              :       0.000225596718
   Actual Damping      :       0.0000
   Actual Level Shift  :       0.2500 Eh
   Int. Num. El.       :   183.99938348 (UP=   91.99969174 DN=   91.99969174)
   Exchange            :  -109.36419559
   Correlation         :    -5.97420266
   DIIS-Error          :       0.014840876727
   DIIS coefficients:
      0.08180   0.08114   0.83706


                         ----------------------------
                         !        ITERATION     5   !
                         ----------------------------
   Total Energy        :   -1186.467999376960 Eh
   Energy Change       :      -0.001063343414 Eh
   MAX-DP              :       0.005167124071
   RMS-DP              :       0.000072305200
   Actual Damping      :       0.0000
   Actual Level Shift  :       0.2500 Eh
   Int. Num. El.       :   183.99938766 (UP=   91.99969383 DN=   91.99969383)
   Exchange            :  -109.38151934
   Correlation         :    -5.97519876
   DIIS-Error          :       0.008501604930
   DIIS coefficients:
      0.00575  -0.00541   0.26627   0.73338

                      *** Initiating the SOSCF procedure ***
                           *** Shutting down DIIS ***
                      *** Re-Reading the Fockian *** 
                      *** Removing any level shift *** 

                         ----------------------------
                         !        ITERATION     6   !
                         ----------------------------
   Total Energy        :   -1186.468211012257 Eh
   Energy Change       :      -0.000211635297 Eh
   MAX-DP              :       0.003783613835
   RMS-DP              :       0.000033582462
   Orbital gradient    :       0.000788581412
   Orbital Rotation    :       0.000788581412
   Actual Damping      :       0.0000
   Int. Num. El.       :   183.99938561 (UP=   91.99969280 DN=   91.99969280)
   Exchange            :  -109.38613847
   Correlation         :    -5.97473314

               *** Restarting incremental Fock matrix formation ***

                         ----------------------------
                         !        ITERATION     7   !
                         ----------------------------
   Total Energy        :   -1186.468246890872 Eh
   Energy Change       :      -0.000035878615 Eh
   MAX-DP              :       0.010058862671
   RMS-DP              :       0.000126979473
   Orbital gradient    :       0.000189861216
   Orbital Rotation    :       0.000445064997
   Actual Damping      :       0.0000
   Int. Num. El.       :   183.99938441 (UP=   91.99969220 DN=   91.99969220)
   Exchange            :  -109.38616535
   Correlation         :    -5.97450884


                         ----------------------------
                         !        ITERATION     8   !
                         ----------------------------
   Total Energy        :   -1186.468254363915 Eh
   Energy Change       :      -0.000007473043 Eh
   MAX-DP              :       0.005386027072
   RMS-DP              :       0.000069060611
   Orbital gradient    :       0.000490777717
   Orbital Rotation    :       0.000961074527
   Actual Damping      :       0.0000
   Int. Num. El.       :   183.99938376 (UP=   91.99969188 DN=   91.99969188)
   Exchange            :  -109.38559213
   Correlation         :    -5.97435818


                         ----------------------------
                         !        ITERATION     9   !
                         ----------------------------
   Total Energy        :   -1186.468258144114 Eh
   Energy Change       :      -0.000003780199 Eh
   MAX-DP              :       0.004388442658
   RMS-DP              :       0.000055445198
   Orbital gradient    :       0.000112264754
   Orbital Rotation    :       0.000157958234
   Actual Damping      :       0.0000
   Int. Num. El.       :   183.99938334 (UP=   91.99969167 DN=   91.99969167)
   Exchange            :  -109.38602925
   Correlation         :    -5.97430572


                         ----------------------------
                         !        ITERATION    10   !
                         ----------------------------
   Total Energy        :   -1186.468258563122 Eh
   Energy Change       :      -0.000000419008 Eh
   MAX-DP              :       0.001201346243
   RMS-DP              :       0.000015094101
   Orbital gradient    :       0.000029811655
   Orbital Rotation    :       0.000030957408
   Actual Damping      :       0.0000
   Int. Num. El.       :   183.99938342 (UP=   91.99969171 DN=   91.99969171)
   Exchange            :  -109.38643527
   Correlation         :    -5.97432787


                         ----------------------------
                         !        ITERATION    11   !
                         ----------------------------
   Total Energy        :   -1186.468258678764 Eh
   Energy Change       :      -0.000000115642 Eh
   MAX-DP              :       0.000817001697
   RMS-DP              :       0.000010124374
   Orbital gradient    :       0.000013399624
   Orbital Rotation    :       0.000032858329
   Actual Damping      :       0.0000
   Int. Num. El.       :   183.99938349 (UP=   91.99969174 DN=   91.99969174)
   Exchange            :  -109.38606200
   Correlation         :    -5.97433073


                         ----------------------------
                         !        ITERATION    12   !
                         ----------------------------
   Total Energy        :   -1186.468258666622 Eh
   Energy Change       :       0.000000012142 Eh
   MAX-DP              :       0.000082819491
   RMS-DP              :       0.000001033594
   Orbital gradient    :       0.000002768626
   Orbital Rotation    :       0.000010216862
   Actual Damping      :       0.0000
   Int. Num. El.       :   183.99938346 (UP=   91.99969173 DN=   91.99969173)
   Exchange            :  -109.38618017
   Correlation         :    -5.97433098


                         ----------------------------
                         !        ITERATION    13   !
                         ----------------------------
   Total Energy        :   -1186.468258662889 Eh
   Energy Change       :       0.000000003733 Eh
   MAX-DP              :       0.000088731906
   RMS-DP              :       0.000001103262
   Orbital gradient    :       0.000003078259
   Orbital Rotation    :       0.000004336475
   Actual Damping      :       0.0000
   Int. Num. El.       :   183.99938346 (UP=   91.99969173 DN=   91.99969173)
   Exchange            :  -109.38616085
   Correlation         :    -5.97433001


                         ----------------------------
                         !        ITERATION    14   !
                         ----------------------------
   Total Energy        :   -1186.468258666610 Eh
   Energy Change       :      -0.000000003722 Eh
   MAX-DP              :       0.000012350505
   RMS-DP              :       0.000000154634
   Orbital gradient    :       0.000000702404
   Orbital Rotation    :       0.000002622248
   Actual Damping      :       0.0000
   Int. Num. El.       :   183.99938346 (UP=   91.99969173 DN=   91.99969173)
   Exchange            :  -109.38615713
   Correlation         :    -5.97433054


                         ----------------------------
                         !        ITERATION    15   !
                         ----------------------------
   Total Energy        :   -1186.468258667716 Eh
   Energy Change       :      -0.000000001105 Eh
   MAX-DP              :       0.000014141669
   RMS-DP              :       0.000000186659
   Orbital gradient    :       0.000000500143
   Orbital Rotation    :       0.000001102412
   Actual Damping      :       0.0000
   Int. Num. El.       :   183.99938346 (UP=   91.99969173 DN=   91.99969173)
   Exchange            :  -109.38616736
   Correlation         :    -5.97433107

                  ***Gradient check signals convergence***
              ***Rediagonalizing the Fockian in SOSCF/NRSCF***

               *****************************************************
               *                     SUCCESS                       *
               *           SCF CONVERGED AFTER  16 CYCLES          *
               *****************************************************

Old exchange energy                            =    -47.883226701 Eh
New exchange energy                            =    -47.882566438 Eh
Exchange energy change after final integration =      0.000660263 Eh
Total energy after final integration           =  -1186.467598404 Eh
Final COS-X integration done in                =     1.458 sec

----------------
TOTAL SCF ENERGY
----------------

Total Energy       :        -1186.46759840 Eh          -32285.42471 eV

Components:
Nuclear Repulsion  :         2176.51521806 Eh           59225.99007 eV
Electronic Energy  :        -3362.98281646 Eh          -91511.41479 eV
One Electron Energy:        -5941.11436685 Eh         -161665.94086 eV
Two Electron Energy:         2578.13155039 Eh           70154.52607 eV

Virial components:
Potential Energy   :        -2369.69425977 Eh          -64482.65904 eV
Kinetic Energy     :         1183.22666136 Eh           32197.23433 eV
Virial Ratio       :            2.00273907


DFT components:
N(Alpha)           :       91.999691729013 electrons
N(Beta)            :       91.999691729013 electrons
N(Total)           :      183.999383458026 electrons
E(X)               :     -109.386163218894 Eh       
E(C)               :       -5.974330884064 Eh       
E(XC)              :     -115.360494102958 Eh       
DFET-embed. en.    :        0.000000000000 Eh       

---------------
SCF CONVERGENCE
---------------

  Last Energy change         ...    1.0286e-09  Tolerance :   1.0000e-09
  Last MAX-Density change    ...    1.1657e-15  Tolerance :   1.0000e-08
  Last RMS-Density change    ...    2.0168e-17  Tolerance :   1.0000e-09
  Last Orbital Gradient      ...    1.2010e-07  Tolerance :   2.0000e-06
  Last Orbital Rotation      ...    5.0971e-07  Tolerance :   2.0000e-06

             **** THE GBW FILE WAS UPDATED (AB_4A.gbw) ****
             **** DENSITY FILE WAS UPDATED (AB_4A.scfp) ****
             **** ENERGY FILE WAS UPDATED (AB_4A.en.tmp) ****
             **** THE GBW FILE WAS UPDATED (AB_4A.gbw) ****
             **** DENSITY FILE WAS UPDATED (AB_4A.scfp) ****
----------------
ORBITAL ENERGIES
----------------

  NO   OCC          E(Eh)            E(eV) 
   0   2.0000     -19.421990      -528.4992 
   1   2.0000     -19.413996      -528.2817 
   2   2.0000     -19.392267      -527.6904 
   3   2.0000     -19.364435      -526.9331 
   4   2.0000     -19.356159      -526.7079 
   5   2.0000     -14.508108      -394.7857 
   6   2.0000     -14.507650      -394.7732 
   7   2.0000     -10.504480      -285.8414 
   8   2.0000     -10.490765      -285.4682 
   9   2.0000     -10.421393      -283.5805 
  10   2.0000     -10.410740      -283.2906 
  11   2.0000     -10.406202      -283.1672 
  12   2.0000     -10.374590      -282.3070 
  13   2.0000     -10.366584      -282.0891 
  14   2.0000     -10.366339      -282.0824 
  15   2.0000     -10.364806      -282.0407 
  16   2.0000     -10.364727      -282.0386 
  17   2.0000     -10.364554      -282.0338 
  18   2.0000     -10.364312      -282.0273 
  19   2.0000     -10.363417      -282.0029 
  20   2.0000     -10.363387      -282.0021 
  21   2.0000     -10.363113      -281.9946 
  22   2.0000     -10.361826      -281.9596 
  23   2.0000     -10.361060      -281.9388 
  24   2.0000     -10.357059      -281.8299 
  25   2.0000      -1.241950       -33.7952 
  26   2.0000      -1.228497       -33.4291 
  27   2.0000      -1.188088       -32.3295 
  28   2.0000      -1.153815       -31.3969 
  29   2.0000      -1.150881       -31.3171 
  30   2.0000      -1.033028       -28.1101 
  31   2.0000      -1.025250       -27.8985 
  32   2.0000      -0.989464       -26.9247 
  33   2.0000      -0.986518       -26.8445 
  34   2.0000      -0.913300       -24.8522 
  35   2.0000      -0.908362       -24.7178 
  36   2.0000      -0.878213       -23.8974 
  37   2.0000      -0.875185       -23.8150 
  38   2.0000      -0.859096       -23.3772 
  39   2.0000      -0.841676       -22.9032 
  40   2.0000      -0.793014       -21.5790 
  41   2.0000      -0.789890       -21.4940 
  42   2.0000      -0.744098       -20.2479 
  43   2.0000      -0.730868       -19.8879 
  44   2.0000      -0.720453       -19.6045 
  45   2.0000      -0.719227       -19.5712 
  46   2.0000      -0.695073       -18.9139 
  47   2.0000      -0.692812       -18.8524 
  48   2.0000      -0.659106       -17.9352 
  49   2.0000      -0.639585       -17.4040 
  50   2.0000      -0.637986       -17.3605 
  51   2.0000      -0.629570       -17.1315 
  52   2.0000      -0.610378       -16.6092 
  53   2.0000      -0.608493       -16.5579 
  54   2.0000      -0.598979       -16.2991 
  55   2.0000      -0.593628       -16.1534 
  56   2.0000      -0.587324       -15.9819 
  57   2.0000      -0.587212       -15.9789 
  58   2.0000      -0.582341       -15.8463 
  59   2.0000      -0.564812       -15.3693 
  60   2.0000      -0.562724       -15.3125 
  61   2.0000      -0.557932       -15.1821 
  62   2.0000      -0.550158       -14.9706 
  63   2.0000      -0.542933       -14.7740 
  64   2.0000      -0.538418       -14.6511 
  65   2.0000      -0.532101       -14.4792 
  66   2.0000      -0.530792       -14.4436 
  67   2.0000      -0.519736       -14.1427 
  68   2.0000      -0.518598       -14.1118 
  69   2.0000      -0.513451       -13.9717 
  70   2.0000      -0.504580       -13.7303 
  71   2.0000      -0.496710       -13.5162 
  72   2.0000      -0.488830       -13.3017 
  73   2.0000      -0.484636       -13.1876 
  74   2.0000      -0.478872       -13.0308 
  75   2.0000      -0.468241       -12.7415 
  76   2.0000      -0.460238       -12.5237 
  77   2.0000      -0.448011       -12.1910 
  78   2.0000      -0.445633       -12.1263 
  79   2.0000      -0.444003       -12.0819 
  80   2.0000      -0.443815       -12.0768 
  81   2.0000      -0.432020       -11.7559 
  82   2.0000      -0.430927       -11.7261 
  83   2.0000      -0.423500       -11.5240 
  84   2.0000      -0.392739       -10.6870 
  85   2.0000      -0.386561       -10.5189 
  86   2.0000      -0.357960        -9.7406 
  87   2.0000      -0.352337        -9.5876 
  88   2.0000      -0.348279        -9.4772 
  89   2.0000      -0.339781        -9.2459 
  90   2.0000      -0.339134        -9.2283 
  91   2.0000      -0.308011        -8.3814 
  92   0.0000       0.045326         1.2334 
  93   0.0000       0.052354         1.4246 
  94   0.0000       0.067901         1.8477 
  95   0.0000       0.074088         2.0160 
  96   0.0000       0.075100         2.0436 
  97   0.0000       0.083611         2.2752 
  98   0.0000       0.085642         2.3304 
  99   0.0000       0.088146         2.3986 
 100   0.0000       0.092876         2.5273 
 101   0.0000       0.100228         2.7273 
 102   0.0000       0.105966         2.8835 
 103   0.0000       0.110973         3.0197 
 104   0.0000       0.114782         3.1234 
 105   0.0000       0.124376         3.3844 
 106   0.0000       0.127993         3.4829 
 107   0.0000       0.137557         3.7431 
 108   0.0000       0.141948         3.8626 
 109   0.0000       0.152005         4.1363 
 110   0.0000       0.155787         4.2392 
 111   0.0000       0.159344         4.3360 
 112   0.0000       0.161223         4.3871 
 113   0.0000       0.170829         4.6485 
 114   0.0000       0.177185         4.8215 
 115   0.0000       0.185231         5.0404 
 116   0.0000       0.188380         5.1261 
 117   0.0000       0.193285         5.2596 
 118   0.0000       0.203229         5.5301 
 119   0.0000       0.206984         5.6323 
 120   0.0000       0.218594         5.9482 
 121   0.0000       0.220211         5.9922 
 122   0.0000       0.225337         6.1317 
 123   0.0000       0.234155         6.3717 
 124   0.0000       0.236980         6.4486 
 125   0.0000       0.237618         6.4659 
 126   0.0000       0.246993         6.7210 
 127   0.0000       0.252548         6.8722 
 128   0.0000       0.256780         6.9873 
 129   0.0000       0.263048         7.1579 
 130   0.0000       0.267160         7.2698 
 131   0.0000       0.275201         7.4886 
 132   0.0000       0.279528         7.6063 
 133   0.0000       0.280983         7.6459 
 134   0.0000       0.283533         7.7153 
 135   0.0000       0.289074         7.8661 
 136   0.0000       0.290501         7.9049 
 137   0.0000       0.296423         8.0661 
 138   0.0000       0.298347         8.1184 
 139   0.0000       0.308399         8.3920 
 140   0.0000       0.315333         8.5807 
 141   0.0000       0.317132         8.6296 
 142   0.0000       0.324885         8.8406 
 143   0.0000       0.332401         9.0451 
 144   0.0000       0.338534         9.2120 
 145   0.0000       0.342301         9.3145 
 146   0.0000       0.344202         9.3662 
 147   0.0000       0.347431         9.4541 
 148   0.0000       0.348116         9.4727 
 149   0.0000       0.355440         9.6720 
 150   0.0000       0.362727         9.8703 
 151   0.0000       0.362932         9.8759 
 152   0.0000       0.373481        10.1629 
 153   0.0000       0.376312        10.2400 
 154   0.0000       0.381000        10.3675 
 155   0.0000       0.384377        10.4594 
 156   0.0000       0.385728        10.4962 
 157   0.0000       0.394065        10.7231 
 158   0.0000       0.397181        10.8078 
 159   0.0000       0.399500        10.8710 
 160   0.0000       0.401136        10.9155 
 161   0.0000       0.407562        11.0903 
 162   0.0000       0.409876        11.1533 
 163   0.0000       0.416519        11.3341 
 164   0.0000       0.417792        11.3687 
 165   0.0000       0.422010        11.4835 
 166   0.0000       0.427937        11.6448 
 167   0.0000       0.430127        11.7044 
 168   0.0000       0.430670        11.7191 
 169   0.0000       0.441761        12.0209 
 170   0.0000       0.446556        12.1514 
 171   0.0000       0.449244        12.2246 
 172   0.0000       0.452161        12.3039 
 173   0.0000       0.460839        12.5401 
 174   0.0000       0.466100        12.6832 
 175   0.0000       0.471579        12.8323 
 176   0.0000       0.474191        12.9034 
 177   0.0000       0.478158        13.0113 
 178   0.0000       0.478495        13.0205 
 179   0.0000       0.480518        13.0756 
 180   0.0000       0.485028        13.1983 
 181   0.0000       0.490222        13.3396 
 182   0.0000       0.495707        13.4889 
 183   0.0000       0.500378        13.6160 
 184   0.0000       0.502479        13.6731 
 185   0.0000       0.504078        13.7167 
 186   0.0000       0.506252        13.7758 
 187   0.0000       0.508935        13.8488 
 188   0.0000       0.515693        14.0327 
 189   0.0000       0.519046        14.1240 
 190   0.0000       0.522265        14.2116 
 191   0.0000       0.524011        14.2591 
 192   0.0000       0.534100        14.5336 
 193   0.0000       0.539577        14.6826 
 194   0.0000       0.541233        14.7277 
 195   0.0000       0.541710        14.7407 
 196   0.0000       0.545123        14.8335 
 197   0.0000       0.550406        14.9773 
 198   0.0000       0.555113        15.1054 
 199   0.0000       0.562693        15.3117 
 200   0.0000       0.563841        15.3429 
 201   0.0000       0.566179        15.4065 
 202   0.0000       0.569307        15.4916 
 203   0.0000       0.573685        15.6108 
 204   0.0000       0.577428        15.7126 
 205   0.0000       0.579840        15.7782 
 206   0.0000       0.583347        15.8737 
 207   0.0000       0.588295        16.0083 
 208   0.0000       0.592819        16.1314 
 209   0.0000       0.593963        16.1626 
 210   0.0000       0.597805        16.2671 
 211   0.0000       0.601558        16.3692 
 212   0.0000       0.606815        16.5123 
 213   0.0000       0.610993        16.6260 
 214   0.0000       0.612131        16.6569 
 215   0.0000       0.616004        16.7623 
 216   0.0000       0.623477        16.9657 
 217   0.0000       0.628069        17.0906 
 218   0.0000       0.631488        17.1837 
 219   0.0000       0.638982        17.3876 
 220   0.0000       0.645467        17.5640 
 221   0.0000       0.649021        17.6608 
 222   0.0000       0.653416        17.7804 
 223   0.0000       0.654640        17.8137 
 224   0.0000       0.659990        17.9592 
 225   0.0000       0.662041        18.0150 
 226   0.0000       0.665055        18.0971 
 227   0.0000       0.670490        18.2450 
 228   0.0000       0.678168        18.4539 
 229   0.0000       0.686743        18.6872 
 230   0.0000       0.696721        18.9587 
 231   0.0000       0.700791        19.0695 
 232   0.0000       0.705244        19.1907 
 233   0.0000       0.710551        19.3351 
 234   0.0000       0.713738        19.4218 
 235   0.0000       0.726188        19.7606 
 236   0.0000       0.730487        19.8776 
 237   0.0000       0.733284        19.9537 
 238   0.0000       0.742135        20.1945 
 239   0.0000       0.747731        20.3468 
 240   0.0000       0.752790        20.4845 
 241   0.0000       0.758111        20.6293 
 242   0.0000       0.766829        20.8665 
 243   0.0000       0.774345        21.0710 
 244   0.0000       0.777198        21.1486 
 245   0.0000       0.784955        21.3597 
 246   0.0000       0.792046        21.5527 
 247   0.0000       0.793679        21.5971 
 248   0.0000       0.798645        21.7322 
 249   0.0000       0.802068        21.8254 
 250   0.0000       0.818921        22.2840 
 251   0.0000       0.826733        22.4965 
 252   0.0000       0.833341        22.6764 
 253   0.0000       0.838439        22.8151 
 254   0.0000       0.843923        22.9643 
 255   0.0000       0.847183        23.0530 
 256   0.0000       0.855979        23.2924 
 257   0.0000       0.872643        23.7458 
 258   0.0000       0.877522        23.8786 
 259   0.0000       0.905704        24.6455 
 260   0.0000       0.916429        24.9373 
 261   0.0000       0.926612        25.2144 
 262   0.0000       0.939450        25.5637 
 263   0.0000       0.949001        25.8236 
 264   0.0000       0.965890        26.2832 
 265   0.0000       0.983378        26.7591 
 266   0.0000       1.005261        27.3546 
 267   0.0000       1.037397        28.2290 
 268   0.0000       1.054366        28.6908 
 269   0.0000       1.193077        32.4653 
 270   0.0000       1.244214        33.8568 
 271   0.0000       1.290016        35.1031 
 272   0.0000       1.296984        35.2927 
 273   0.0000       1.298199        35.3258 
 274   0.0000       1.305799        35.5326 
 275   0.0000       1.314201        35.7612 
 276   0.0000       1.318536        35.8792 
 277   0.0000       1.324865        36.0514 
 278   0.0000       1.330006        36.1913 
 279   0.0000       1.341361        36.5003 
 280   0.0000       1.341926        36.5157 
 281   0.0000       1.345144        36.6032 
 282   0.0000       1.354270        36.8516 
 283   0.0000       1.358252        36.9599 
 284   0.0000       1.362851        37.0851 
 285   0.0000       1.372858        37.3574 
 286   0.0000       1.380394        37.5624 
 287   0.0000       1.388628        37.7865 
 288   0.0000       1.391172        37.8557 
 289   0.0000       1.393040        37.9065 
 290   0.0000       1.398564        38.0569 
 291   0.0000       1.404503        38.2185 
 292   0.0000       1.412732        38.4424 
 293   0.0000       1.416058        38.5329 
 294   0.0000       1.433826        39.0164 
 295   0.0000       1.436867        39.0992 
 296   0.0000       1.441571        39.2271 
 297   0.0000       1.454312        39.5738 
 298   0.0000       1.459028        39.7022 
 299   0.0000       1.463653        39.8280 
 300   0.0000       1.470725        40.0205 
 301   0.0000       1.474073        40.1116 
 302   0.0000       1.481189        40.3052 
 303   0.0000       1.488407        40.5016 
 304   0.0000       1.491250        40.5790 
 305   0.0000       1.497035        40.7364 
 306   0.0000       1.502246        40.8782 
 307   0.0000       1.517950        41.3055 
 308   0.0000       1.521628        41.4056 
 309   0.0000       1.534576        41.7579 
 310   0.0000       1.535560        41.7847 
 311   0.0000       1.540290        41.9134 
 312   0.0000       1.550267        42.1849 
 313   0.0000       1.553851        42.2824 
 314   0.0000       1.555441        42.3257 
 315   0.0000       1.561395        42.4877 
 316   0.0000       1.566075        42.6151 
 317   0.0000       1.568699        42.6865 
 318   0.0000       1.572505        42.7900 
 319   0.0000       1.578866        42.9631 
 320   0.0000       1.580672        43.0123 
 321   0.0000       1.586325        43.1661 
 322   0.0000       1.595831        43.4248 
 323   0.0000       1.598809        43.5058 
 324   0.0000       1.600532        43.5527 
 325   0.0000       1.604419        43.6585 
 326   0.0000       1.607793        43.7503 
 327   0.0000       1.614105        43.9220 
 328   0.0000       1.623644        44.1816 
 329   0.0000       1.628520        44.3143 
 330   0.0000       1.632563        44.4243 
 331   0.0000       1.638431        44.5840 
 332   0.0000       1.646123        44.7933 
 333   0.0000       1.651531        44.9405 
 334   0.0000       1.656226        45.0682 
 335   0.0000       1.659541        45.1584 
 336   0.0000       1.669803        45.4376 
 337   0.0000       1.673937        45.5501 
 338   0.0000       1.676867        45.6299 
 339   0.0000       1.682005        45.7697 
 340   0.0000       1.686641        45.8958 
 341   0.0000       1.694641        46.1135 
 342   0.0000       1.698034        46.2059 
 343   0.0000       1.703950        46.3668 
 344   0.0000       1.708183        46.4820 
 345   0.0000       1.719169        46.7810 
 346   0.0000       1.722481        46.8711 
 347   0.0000       1.730150        47.0798 
 348   0.0000       1.745255        47.4908 
 349   0.0000       1.748662        47.5835 
 350   0.0000       1.756157        47.7875 
 351   0.0000       1.762304        47.9547 
 352   0.0000       1.773742        48.2660 
 353   0.0000       1.779057        48.4106 
 354   0.0000       1.783586        48.5338 
 355   0.0000       1.788282        48.6616 
 356   0.0000       1.791811        48.7577 
 357   0.0000       1.794266        48.8244 
 358   0.0000       1.797325        48.9077 
 359   0.0000       1.807324        49.1798 
 360   0.0000       1.813383        49.3447 
 361   0.0000       1.828070        49.7443 
 362   0.0000       1.830059        49.7984 
 363   0.0000       1.842243        50.1300 
 364   0.0000       1.846100        50.2349 
 365   0.0000       1.848479        50.2997 
 366   0.0000       1.866115        50.7796 
 367   0.0000       1.866816        50.7986 
 368   0.0000       1.878702        51.1221 
 369   0.0000       1.884465        51.2789 
 370   0.0000       1.891005        51.4568 
 371   0.0000       1.903288        51.7911 
 372   0.0000       1.908627        51.9364 
 373   0.0000       1.912629        52.0453 
 374   0.0000       1.917913        52.1891 
 375   0.0000       1.921545        52.2879 
 376   0.0000       1.926697        52.4281 
 377   0.0000       1.940354        52.7997 
 378   0.0000       1.945277        52.9337 
 379   0.0000       1.953707        53.1631 
 380   0.0000       1.965563        53.4857 
 381   0.0000       1.969066        53.5810 
 382   0.0000       1.972319        53.6695 
 383   0.0000       1.981019        53.9063 
 384   0.0000       1.986219        54.0478 
 385   0.0000       1.993419        54.2437 
 386   0.0000       2.002176        54.4820 
 387   0.0000       2.006042        54.5872 
 388   0.0000       2.007542        54.6280 
 389   0.0000       2.013193        54.7818 
 390   0.0000       2.015587        54.8469 
 391   0.0000       2.019680        54.9583 
 392   0.0000       2.024716        55.0953 
 393   0.0000       2.039657        55.5019 
 394   0.0000       2.045651        55.6650 
 395   0.0000       2.050469        55.7961 
 396   0.0000       2.058565        56.0164 
 397   0.0000       2.065903        56.2161 
 398   0.0000       2.072592        56.3981 
 399   0.0000       2.077024        56.5187 
 400   0.0000       2.082433        56.6659 
 401   0.0000       2.087033        56.7911 
 402   0.0000       2.090089        56.8742 
 403   0.0000       2.095189        57.0130 
 404   0.0000       2.103108        57.2285 
 405   0.0000       2.106969        57.3336 
 406   0.0000       2.111126        57.4467 
 407   0.0000       2.123971        57.7962 
 408   0.0000       2.125850        57.8473 
 409   0.0000       2.136408        58.1346 
 410   0.0000       2.140462        58.2449 
 411   0.0000       2.152185        58.5639 
 412   0.0000       2.162605        58.8475 
 413   0.0000       2.180416        59.3321 
 414   0.0000       2.184362        59.4395 
 415   0.0000       2.184991        59.4566 
 416   0.0000       2.210027        60.1379 
 417   0.0000       2.216686        60.3191 
 418   0.0000       2.229282        60.6618 
 419   0.0000       2.233684        60.7816 
 420   0.0000       2.248371        61.1813 
 421   0.0000       2.271686        61.8157 
 422   0.0000       2.289002        62.2869 
 423   0.0000       2.293969        62.4221 
 424   0.0000       2.305807        62.7442 
 425   0.0000       2.311589        62.9015 
 426   0.0000       2.316869        63.0452 
[...]
  47 2459767.3      4.1   0.00000   0.04951   0.14087   0.00000224479497   0.91519   0.02206   0.06276
  48 2461555.9      4.1   0.00000   0.01212   0.03524   0.00000096228785   0.95079   0.01259   0.03662
  49 2462051.7      4.1   0.00000   0.07072   0.19414   0.00000227102428   0.88337   0.03114   0.08549
  50 2463665.1      4.1   0.00000   0.00620   0.01458   0.00000019631934   0.89418   0.03157   0.07425
  51 2468412.9      4.1   0.00372  53.54813  86.20954   0.00385975619323   0.96379   0.01387   0.02234
  52 2476581.7      4.0   0.04326 676.67325 1182.44266   0.04512073772498   0.95880   0.01500   0.02621
  53 2477801.9      4.0   0.00000   0.00964   0.02122   0.00000016095636   0.80828   0.05991   0.13181
  54 2477816.6      4.0   0.00022  15.46696  19.99373   0.00025838450319   0.86276   0.05986   0.07738
  55 2477843.3      4.0   0.03286 656.03003 1088.43258   0.03460301394652   0.94959   0.01896   0.03145
  56 2480040.8      4.0   0.00000   0.00243   0.00547   0.00000093579076   0.99157   0.00259   0.00584
  57 2480942.7      4.0   0.00001   0.58372   1.14747   0.00001265801948   0.86323   0.04611   0.09065
  58 2483680.3      4.0   0.00073  15.07923  16.16796   0.00076319722000   0.95906   0.01976   0.02118
  59 2485690.0      4.0   0.00029   6.07967  16.35858   0.00031430207347   0.92861   0.01934   0.05205
  60 2485890.5      4.0   0.00187  36.94074  63.63704   0.00196951924558   0.94893   0.01876   0.03231
  61 2486982.9      4.0   0.00034   5.16190  10.35935   0.00035200979793   0.95591   0.01466   0.02943
  62 2488140.8      4.0   0.00000   0.00054   0.00093   0.00000004806654   0.96935   0.01120   0.01945
  63 2488549.7      4.0   0.00000   0.03479   0.04057   0.00000407653881   0.98151   0.00854   0.00995
  64 2488981.6      4.0   0.00002   0.45792   0.74837   0.00002263103358   0.94670   0.02023   0.03307
  65 2489100.8      4.0   0.00000   0.02930   0.04895   0.00000238798155   0.96723   0.01227   0.02050
  66 2489620.4      4.0   0.00037   8.03936  13.19072   0.00038995150595   0.94556   0.02062   0.03383
  67 2489628.6      4.0   0.00021   3.39835   5.77125   0.00021938093201   0.95820   0.01549   0.02631
  68 2496046.0      4.0   0.00003   0.47658   0.56768   0.00003135312099   0.96669   0.01520   0.01811
  69 2500922.8      4.0   0.00000   0.00271   0.00811   0.00000026560155   0.95926   0.01021   0.03053
  70 2502388.8      4.0   0.00000   0.00110   0.00284   0.00000011043239   0.96431   0.00998   0.02571
  71 2518901.9      4.0   0.00000   0.00014   0.00028   0.00000004761242   0.99117   0.00292   0.00592
  72 2519935.0      4.0   0.00005   1.96214   2.79745   0.00005351762242   0.91107   0.03666   0.05227
  73 2524719.5      4.0   0.20075 2419.93318 4129.23338   0.20729832614207   0.96841   0.01167   0.01992
  74 2526031.0      4.0   0.26672 1991.59169 3390.51313   0.27209968852340   0.98022   0.00732   0.01246
  75 2561825.3      3.9   0.00292 105.28552 149.56569   0.00317569686019   0.91975   0.03315   0.04710
  76 2562377.9      3.9   0.00894 174.46538 228.66542   0.00934591114781   0.95687   0.01867   0.02447
  77 2562567.4      3.9   0.00020   2.78135   5.82393   0.00020458992261   0.95794   0.01359   0.02847
  78 2566130.9      3.9   0.00004   0.49467   0.83565   0.00003999842523   0.96674   0.01237   0.02089
  79 2566255.4      3.9   0.00032   2.35377   3.78899   0.00032526933866   0.98111   0.00724   0.01165
  80 2567757.2      3.9   0.00000   0.10299   0.14589   0.00000252829586   0.90156   0.04074   0.05770
  81 2568528.9      3.9   0.00000   0.01627   0.03277   0.00000127312091   0.96148   0.01278   0.02574
  82 2568687.9      3.9   0.00002   0.21415   0.33270   0.00001668616541   0.96723   0.01283   0.01994
  83 2568837.7      3.9   0.00000   0.02007   0.02014   0.00000270391423   0.98513   0.00742   0.00745
  84 2569398.6      3.9   0.00061   6.29421  10.64275   0.00062598642161   0.97294   0.01005   0.01700
  85 2569742.5      3.9   0.00000   0.00227   0.00149   0.00000069685242   0.99460   0.00325   0.00214
  86 2577224.8      3.9   0.00000   0.02873   0.07028   0.00000398604006   0.97516   0.00721   0.01763
  87 2580882.9      3.9   0.00000   0.00413   0.01142   0.00000012640207   0.87696   0.03270   0.09035
  88 2582035.4      3.9   0.00000   0.08028   0.16846   0.00000205639581   0.87904   0.03904   0.08192
  89 2589333.5      3.9   0.00282   0.47525   0.83636   0.00282487602557   0.99954   0.00017   0.00030
  90 2592141.1      3.9   0.00047  14.48836  21.75768   0.00050902900723   0.92879   0.02846   0.04274
  91 2592894.1      3.9   0.00070  16.07511  27.32344   0.00074284237782   0.94158   0.02164   0.03678
  92 2592990.9      3.9   0.00002   1.18886   1.17143   0.00002242499524   0.89475   0.05301   0.05224
  93 2593720.8      3.9   0.00042  11.30621  18.50060   0.00044854263295   0.93355   0.02521   0.04125
  94 2594919.1      3.9   0.00000   0.01266   0.03401   0.00000104412027   0.95530   0.01213   0.03257
  95 2595067.7      3.9   0.24083 4758.60070 8774.11470   0.25436467801636   0.94680   0.01871   0.03449
  96 2595275.5      3.9   0.17553 4819.57840 8390.51255   0.18873886454539   0.93001   0.02554   0.04446
  97 2595493.0      3.9   0.00190  47.80448  83.29163   0.00203545291049   0.93559   0.02349   0.04092
  98 2595633.6      3.9   0.02090 561.20589 967.42039   0.02242882642350   0.93185   0.02502   0.04313
  99 2595796.4      3.9   0.06888 1906.13687 3263.43821   0.07405406148225   0.93019   0.02574   0.04407
 100 2596004.3      3.9   0.00097  26.55514  45.03464   0.00104269092677   0.93134   0.02547   0.04319
 101 2596701.3      3.9   0.00000   0.01075   0.06020   0.00000313444196   0.97736   0.00343   0.01921
 102 2598807.9      3.8   0.00000   0.00173   0.00444   0.00000004420005   0.86038   0.03920   0.10043
 103 2600436.2      3.8   0.00000   0.01145   0.02534   0.00000190050626   0.98064   0.00603   0.01333
 104 2600994.6      3.8   0.01414 323.07546 550.13416   0.01501360230747   0.94184   0.02152   0.03664
 105 2601905.9      3.8   0.00575  63.31444 109.59138   0.00592211478413   0.97080   0.01069   0.01851
 106 2604102.2      3.8   0.00006   0.22928   0.20083   0.00006239261002   0.99311   0.00367   0.00322
 107 2607868.4      3.8   0.00000   0.00032   0.00151   0.00000001720938   0.89368   0.01883   0.08749
 108 2609065.6      3.8   0.00000   0.00885   0.02020   0.00000220743674   0.98684   0.00401   0.00915
 109 2619447.0      3.8   0.11883 2191.59943 3791.61215   0.12480958915950   0.95206   0.01756   0.03038
 110 2625773.0      3.8   0.00000   0.00839   0.01829   0.00000015532901   0.82823   0.05401   0.11776
 111 2626696.5      3.8   0.10611 1887.64411 3211.89761   0.11120965171448   0.95414   0.01697   0.02888
 112 2627377.0      3.8   0.00001   0.56870   0.59857   0.00000755211754   0.84544   0.07530   0.07926
 113 2631271.8      3.8   0.03944   5.08529   9.14270   0.03945826442077   0.99964   0.00013   0.00023
 114 2634253.1      3.8   0.00124  49.56915  24.15567   0.00131601519670   0.94398   0.03767   0.01836
 115 2636561.1      3.8   0.00068   6.10463   7.82130   0.00069192453852   0.97987   0.00882   0.01130
 116 2636943.0      3.8   0.01606 143.04479 253.01400   0.01646081518762   0.97594   0.00869   0.01537
 117 2639124.8      3.8   0.00016   3.89718   9.54362   0.00017548959210   0.92341   0.02221   0.05438
 118 2639373.2      3.8   0.00155  45.49795  83.55795   0.00167686082536   0.92304   0.02713   0.04983
 119 2640997.6      3.8   0.00079  47.53771  53.01626   0.00089212539928   0.88729   0.05329   0.05943
 120 2641745.5      3.8   0.00028   6.72751  11.50283   0.00030021757333   0.93928   0.02241   0.03831
 121 2642653.7      3.8   0.00018   3.70894   3.87866   0.00018391562914   0.95874   0.02017   0.02109
 122 2643242.4      3.8   0.00051  11.54426  19.74815   0.00053820986846   0.94186   0.02145   0.03669
 123 2643436.4      3.8   0.00000   0.01711   0.04127   0.00000130559083   0.95529   0.01310   0.03161
 124 2644096.2      3.8   0.00001   0.01746   0.03327   0.00000678016757   0.99252   0.00258   0.00491
 125 2644302.8      3.8   0.00001   0.19293   0.25358   0.00001176034351   0.96203   0.01640   0.02156
 126 2644360.6      3.8   0.00000   0.01950   0.04985   0.00000308923274   0.97755   0.00631   0.01614
 127 2644485.5      3.8   0.00001   0.08681   0.09021   0.00000619638456   0.97143   0.01401   0.01456
 128 2644956.3      3.8   0.00057  11.57119  19.13591   0.00060016883228   0.94884   0.01928   0.03188
 129 2645184.0      3.8   0.00000   0.01164   0.00806   0.00000261291685   0.99246   0.00446   0.00309
 130 2645203.3      3.8   0.00000   0.06672   0.12097   0.00000372413342   0.94960   0.01792   0.03248
 131 2645402.4      3.8   0.00001   0.77671   0.64259   0.00001013927771   0.86002   0.07660   0.06338
 132 2645439.7      3.8   0.00081   5.05330   9.64455   0.00082532288795   0.98219   0.00612   0.01169
 133 2645605.6      3.8   0.00000   1.06812   0.53682   0.00000311848830   0.48535   0.34251   0.17214
 134 2646081.2      3.8   0.00028  10.12599  15.70652   0.00030949255087   0.91653   0.03272   0.05075
 135 2646365.2      3.8   0.00001   0.03738   0.08655   0.00001187709440   0.98957   0.00315   0.00729
 136 2648289.9      3.8   0.00042   8.56552  10.15888   0.00044353318284   0.95778   0.01931   0.02290
 137 2648670.4      3.8   0.00004   0.85602   1.85166   0.00004498248138   0.93981   0.01903   0.04116
 138 2649369.1      3.8   0.00058  17.08038  19.43046   0.00061941644827   0.94106   0.02757   0.03137
 139 2650874.9      3.8   0.00000   0.00028   0.00097   0.00000008796421   0.98575   0.00319   0.01106
 140 2651292.1      3.8   0.00003   0.61740   0.97510   0.00003628980792   0.95612   0.01701   0.02687
 141 2651386.3      3.8   0.00002   0.09396   0.19134   0.00001863813844   0.98469   0.00504   0.01027
 142 2651462.6      3.8   0.00002   0.13028   0.20152   0.00001725567985   0.98077   0.00755   0.01168
 143 2651592.7      3.8   0.00035   6.65827  12.09115   0.00036829835361   0.94909   0.01808   0.03283
 144 2651992.8      3.8   0.00012   2.88734   3.58246   0.00013099738534   0.95061   0.02204   0.02735
 145 2652026.0      3.8   0.00002   0.51064   0.90001   0.00002340371220   0.93973   0.02182   0.03846
 146 2652494.8      3.8   0.00000   0.00332   0.00727   0.00000136008600   0.99221   0.00244   0.00535
 147 2653739.3      3.8   0.00004   2.51628   4.41344   0.00004930797892   0.85946   0.05103   0.08951
 148 2656325.0      3.8   0.00000   0.01166   0.03279   0.00000037542869   0.88160   0.03106   0.08734
 149 2656974.2      3.8   0.01200 323.61597 547.85575   0.01287605437978   0.93232   0.02513   0.04255
 150 2657525.9      3.8   0.00000   0.01649   0.04895   0.00000091069803   0.92815   0.01811   0.05375
 151 2657685.4      3.8   0.00000   0.00744   0.01313   0.00000041650027   0.95061   0.01786   0.03153
 152 2658816.4      3.8   0.00000   0.02824   0.07928   0.00000221153259   0.95139   0.01277   0.03585
 153 2659915.1      3.8   0.00000   0.13579   0.24226   0.00000291572508   0.87034   0.04657   0.08309
 154 2661254.7      3.8   0.00274  68.77561 110.92103   0.00291858687528   0.93843   0.02356   0.03801
 155 2663651.5      3.8   0.00000   0.01184   0.02681   0.00000062232099   0.93790   0.01903   0.04307
 156 2664864.7      3.8   0.00000   0.01348   0.03407   0.00000049222135   0.90339   0.02738   0.06923
 157 2674160.4      3.7   0.11389 176.04062 308.18769   0.11437532712202   0.99577   0.00154   0.00269
 158 2674260.5      3.7   0.00000   0.02213   0.05009   0.00000045385536   0.84087   0.04876   0.11037
 159 2675378.8      3.7   0.00000   0.00839   0.01687   0.00000249520031   0.98987   0.00336   0.00676
 160 2675507.4      3.7   0.00000   0.00264   0.00834   0.00000006891995   0.84072   0.03824   0.12104
 161 2676955.9      3.7   0.00000   0.19224   0.18455   0.00000330390964   0.88596   0.05819   0.05586
 162 2679531.3      3.7   0.03061 497.27409 791.36333   0.03190175387087   0.95961   0.01559   0.02481
 163 2681524.0      3.7   0.00000   0.00401   0.00723   0.00000007901140   0.85784   0.05069   0.09147
 164 2683139.6      3.7   0.00000   0.11279   0.26493   0.00000290455412   0.86995   0.03883   0.09121
 165 2684025.5      3.7   0.01087 228.95860 383.85966   0.01147867458560   0.94661   0.01995   0.03344
 166 2687508.2      3.7   0.00000   0.04060   0.34539   0.00000529772814   0.92714   0.00766   0.06520
 167 2687851.6      3.7   0.00175  11.30287  20.51314   0.00178345157959   0.98216   0.00634   0.01150
 168 2688585.2      3.7   0.00119  47.43848  56.84896   0.00129247657057   0.91931   0.03670   0.04398
 169 2689848.0      3.7   0.00382  93.62320 145.25242   0.00405887218540   0.94115   0.02307   0.03579
 170 2690939.2      3.7   0.00404 108.42622 185.12013   0.00433102432516   0.93222   0.02503   0.04274
 171 2691319.7      3.7   0.00445 111.50704 183.20628   0.00474867076337   0.93794   0.02348   0.03858
 172 2691490.1      3.7   0.00023   5.59220   9.63091   0.00024402899997   0.93762   0.02292   0.03947
 173 2692224.3      3.7   0.00014   2.09642   9.80707   0.00015519179498   0.92330   0.01351   0.06319
 174 2692505.9      3.7   0.00080  14.48211  18.34956   0.00082829339918   0.96036   0.01748   0.02215
 175 2692780.4      3.7   0.00001   0.31553   0.49495   0.00001081326658   0.92505   0.02918   0.04577
 176 2692824.1      3.7   0.00022   0.33343   0.10554   0.00021705055030   0.99798   0.00154   0.00049
 177 2692996.3      3.7   0.00099  29.06705  47.54636   0.00106362666330   0.92797   0.02733   0.04470
 178 2693456.9      3.7   0.00718 179.03337 300.29341   0.00765740421714   0.93740   0.02338   0.03922
 179 2693491.6      3.7   0.00015   3.77801   7.16339   0.00016529841681   0.93381   0.02286   0.04334
 180 2693594.9      3.7   0.00004   0.08221   0.25480   0.00003543502929   0.99049   0.00232   0.00719
 181 2693795.8      3.7   0.00000   0.01332   0.03795   0.00000025282373   0.79719   0.05270   0.15012
 182 2693977.2      3.7   0.00013   0.44552   0.87502   0.00013015847975   0.98985   0.00342   0.00672
 183 2694026.5      3.7   0.00005   0.03804   0.08344   0.00005079460903   0.99761   0.00075   0.00164
 184 2694445.5      3.7   0.00000   0.11624   0.04491   0.00000206247936   0.92187   0.05636   0.02178
 185 2694619.4      3.7   0.00001   0.38316   0.59205   0.00000983082317   0.90080   0.03898   0.06022
 186 2694898.7      3.7   0.00002   0.09609   0.24884   0.00001575919502   0.97811   0.00610   0.01579
 187 2695580.6      3.7   0.00000   0.00646   0.01869   0.00000498410280   0.99495   0.00130   0.00375
 188 2696069.0      3.7   0.00269  59.28929  93.59744   0.00284056349623   0.94618   0.02087   0.03295
 189 2700855.2      3.7   0.00002   0.63920   1.53524   0.00001719252572   0.87352   0.03718   0.08930
 190 2702953.1      3.7   0.00003   0.80447   1.21503   0.00002772237711   0.92715   0.02902   0.04383
 191 2705541.5      3.7   0.00000   0.04197   0.10012   0.00000423367856   0.96644   0.00991   0.02365
 192 2706706.2      3.7   0.00000   0.00036   0.00024   0.00000006745275   0.99112   0.00527   0.00361
 193 2707053.6      3.7   0.00000   0.01367   0.02641   0.00000419409013   0.99044   0.00326   0.00630
 194 2707973.1      3.7   0.00000   0.00790   0.01563   0.00000062381577   0.96227   0.01267   0.02506
 195 2715880.7      3.7   0.00079   6.81708  12.38979   0.00081279140758   0.97637   0.00839   0.01524
 196 2720746.2      3.7   0.00024   4.12071  15.38236   0.00025692452313   0.92409   0.01604   0.05987
 197 2723567.0      3.7   0.00000   0.00096   0.00148   0.00000011290380   0.97838   0.00854   0.01308
 198 2724614.0      3.7   0.00000   0.00008   0.00018   0.00000017065896   0.99846   0.00047   0.00107
 199 2724743.0      3.7   0.00000   0.00436   0.01497   0.00000054396805   0.96448   0.00801   0.02751



Timings within the ROCIS calculation:
          calculation preparation:       11.683 Sec.  ( 16.1%)
          integral transformation:       36.457 Sec.  ( 50.3%)
          fock matrix formation:         12.289 Sec.  ( 16.9%)
          ROCIS calculation:              0.556 Sec.  (  0.8%)
          density formation/plotting:    11.546 Sec.  ( 15.9%)
          TOTAL ROCIS TIME:              72.537 Sec.  (100.0%)

          This is  1 minutes and 12.5 seconds.




-------------------------------------------------------------------------------
                          DFT DISPERSION CORRECTION                            
                                                                               
                              DFTD3 V3.1  Rev 1                                
                          USING Becke-Johnson damping                          
-------------------------------------------------------------------------------
The WB97M-D3BJ functional is recognized
Active option DFTDOPT                   ...         4   

molecular C6(AA) [au] = 22589.106759 


            DFT-D V3
 parameters
 s6 scaling factor         :     1.0000 
 a1 scaling factor         :     0.5660 
 s8 scaling factor         :     0.3908 
 a2 scaling factor         :     3.1280 
 ad hoc parameters k1-k3   :    16.0000     1.3333    -4.0000 

 Edisp/kcal,au: -51.808588435840  -0.082562232207 
 E6   /kcal   : -41.731827665 
 E8   /kcal   : -10.076760771 
 % E8         :  19.449981315 

-------------------------   ----------------
Dispersion correction           -0.082562232
-------------------------   ----------------


-------------------------   --------------------
FINAL SINGLE POINT ENERGY     -1186.550160635821
-------------------------   --------------------


                            ***************************************
                            *     ORCA property calculations      *
                            ***************************************

                                    ---------------------
                                    Active property flags
                                    ---------------------
   (+) Dipole Moment


------------------------------------------------------------------------------
                       ORCA ELECTRIC PROPERTIES CALCULATION
------------------------------------------------------------------------------

Dipole Moment Calculation                       ... on
Quadrupole Moment Calculation                   ... off
Polarizability Calculation                      ... off
GBWName                                         ... AB_4A.gbw
Electron density file                           ... AB_4A.scfp
The origin for moment calculation is the CENTER OF MASS  = (-0.495886,  3.567918 -4.242861)

-------------
DIPOLE MOMENT
-------------
                                X             Y             Z
Electronic contribution:     -1.08586       0.26021      -4.84341
Nuclear contribution   :      1.75884      -1.20973       5.02942
                        -----------------------------------------
Total Dipole Moment    :      0.67298      -0.94952       0.18601
                        -----------------------------------------
Magnitude (a.u.)       :      1.17860
Magnitude (Debye)      :      2.99576



--------------------
Rotational spectrum 
--------------------
 
Rotational constants in cm-1:     0.007814     0.004928     0.003403 
Rotational constants in MHz :   234.245671   147.745078   102.021787 

 Dipole components along the rotational axes: 
x,y,z [a.u.] :    -0.107990    -0.976910    -0.650446 
x,y,z [Debye]:    -0.274488    -2.483107    -1.653301 

 

Timings for individual modules:

Sum of individual times         ...      133.247 sec (=   2.221 min)
GTO integral calculation        ...        5.264 sec (=   0.088 min)   4.0 %
Relativistic integrals          ...        3.809 sec (=   0.063 min)   2.9 %
SCF iterations                  ...       41.155 sec (=   0.686 min)  30.9 %
                             ****ORCA TERMINATED NORMALLY****
TOTAL RUN TIME: 0 days 0 hours 2 minutes 17 seconds 805 msec
