
                                 *****************
                                 * O   R   C   A *
                                 *****************

           --- An Ab Initio, DFT and Semiempirical electronic structure package ---

                  #######################################################
                  #                        -***-                        #
                  #          Department of theory and spectroscopy      #
                  #               Directorship: Frank Neese             #
                  #        Max Planck Institute fuer Kohlenforschung    #
                  #                Kaiser Wilhelm Platz 1               #
                  #                 D-45470 Muelheim/Ruhr               #
                  #                      Germany                        #
                  #                                                     #
                  #                  All rights reserved                #
                  #                        -***-                        #
                  #######################################################


                         Program Version 4.2.1 -  RELEASE  -


 With contributions from (in alphabetic order):
   Daniel Aravena         : Magnetic Suceptibility
   Michael Atanasov       : Ab Initio Ligand Field Theory (pilot matlab implementation)
   Alexander A. Auer      : GIAO ZORA, VPT2
   Ute Becker             : Parallelization
   Giovanni Bistoni       : ED, misc. LED, open-shell LED, HFLD
   Martin Brehm           : Molecular dynamics
   Dmytro Bykov           : SCF Hessian
   Vijay G. Chilkuri      : MRCI spin determinant printing, contributions to CSF-ICE
   Dipayan Datta          : RHF DLPNO-CCSD density
   Achintya Kumar Dutta   : EOM-CC, STEOM-CC
   Dmitry Ganyushin       : Spin-Orbit,Spin-Spin,Magnetic field MRCI
   Miquel Garcia          : C-PCM Hessian, Gaussian charge scheme
   Yang Guo               : DLPNO-NEVPT2, CIM, IAO-localization
   Andreas Hansen         : Spin unrestricted coupled pair/coupled cluster methods
   Benjamin Helmich-Paris : CASSCF linear response (MC-RPA)
   Lee Huntington         : MR-EOM, pCC
   Robert Izsak           : Overlap fitted RIJCOSX, COSX-SCS-MP3, EOM
   Christian Kollmar      : KDIIS, OOCD, Brueckner-CCSD(T), CCSD density
   Simone Kossmann        : Meta GGA functionals, TD-DFT gradient, OOMP2, MP2 Hessian
   Martin Krupicka        : AUTO-CI
   Lucas Lang             : DCDCAS
   Dagmar Lenk            : GEPOL surface, SMD
   Dimitrios Liakos       : Extrapolation schemes; Compound Job, initial MDCI parallelization
   Dimitrios Manganas     : Further ROCIS development; embedding schemes
   Dimitrios Pantazis     : SARC Basis sets
   Taras Petrenko         : DFT Hessian,TD-DFT gradient, ASA, ECA, R-Raman, ABS, FL, XAS/XES, NRVS
   Peter Pinski           : DLPNO-MP2, DLPNO-MP2 Gradient
   Christoph Reimann      : Effective Core Potentials
   Marius Retegan         : Local ZFS, SOC
   Christoph Riplinger    : Optimizer, TS searches, QM/MM, DLPNO-CCSD(T), (RO)-DLPNO pert. Triples
   Tobias Risthaus        : Range-separated hybrids, TD-DFT gradient, RPA, STAB
   Michael Roemelt        : Original ROCIS implementation
   Masaaki Saitow         : Open-shell DLPNO-CCSD energy and density
   Barbara Sandhoefer     : DKH picture change effects
   Avijit Sen             : IP-ROCIS
   Kantharuban Sivalingam : CASSCF convergence, NEVPT2, FIC-MRCI
   Bernardo de Souza      : ESD, SOC TD-DFT
   Georgi Stoychev        : AutoAux, RI-MP2 NMR
   Willem Van den Heuvel  : Paramagnetic NMR
   Boris Wezisla          : Elementary symmetry handling
   Frank Wennmohs         : Technical directorship


 We gratefully acknowledge several colleagues who have allowed us to
 interface, adapt or use parts of their codes:
   Stefan Grimme, W. Hujo, H. Kruse,             : VdW corrections, initial TS optimization,
                  C. Bannwarth                     DFT functionals, gCP, sTDA/sTD-DF
   Ed Valeev, F. Pavosevic, A. Kumar             : LibInt (2-el integral package), F12 methods
   Garnet Chan, S. Sharma, J. Yang, R. Olivares  : DMRG
   Ulf Ekstrom                                   : XCFun DFT Library
   Mihaly Kallay                                 : mrcc  (arbitrary order and MRCC methods)
   Andreas Klamt, Michael Diedenhofen            : otool_cosmo (COSMO solvation model)
   Jiri Pittner, Ondrej Demel                    : Mk-CCSD
   Frank Weinhold                                : gennbo (NPA and NBO analysis)
   Christopher J. Cramer and Donald G. Truhlar   : smd solvation model
   Lars Goerigk                                  : TD-DFT with DH, B97 family of functionals
   V. Asgeirsson, H. Jonsson                     : NEB implementation
   FAccTs GmbH                                   : IRC, NEB, NEB-TS, Multilevel, MM, QM/MM, CI optimization
   S Lehtola, MJT Oliveira, MAL Marques          : LibXC Library


 Your calculation uses the libint2 library for the computation of 2-el integrals
 For citations please refer to: http://libint.valeyev.net

 Your ORCA version has been built with support for libXC version: 4.2.3
 For citations please refer to: https://tddft.org/programs/libxc/

 This ORCA versions uses:
   CBLAS   interface :  Fast vector & matrix operations
   LAPACKE interface :  Fast linear algebra routines
   SCALAPACK package :  Parallel linear algebra routines


Your calculation utilizes the atom-pairwise dispersion correction
with the Becke-Johnson damping scheme (D3BJ)
Cite in your paper:
S.Grimme, S.Ehrlich, L.Goerigk, J Comput Chem, (2011), 32, 1456–1465 
S.Grimme, J.Antony, S.Ehrlich and H.Krieg, J.Chem.Phys., 132, (2010), 154104 
   

----- Orbital basis set information -----
Your calculation utilizes the basis: ZORA-TZVP 

----- AuxJ basis set information -----
Your calculation utilizes the AutoAux generation procedure.
  G. L. Stoychev, A. A. Auer, F. Neese, J. Chem. Theory Comput. 13, 554 (2017)

----- AuxC basis set information -----
Your calculation utilizes the AutoAux generation procedure.
  G. L. Stoychev, A. A. Auer, F. Neese, J. Chem. Theory Comput. 13, 554 (2017)

----- AuxJK basis set information -----
Your calculation utilizes the AutoAux generation procedure.
  G. L. Stoychev, A. A. Auer, F. Neese, J. Chem. Theory Comput. 13, 554 (2017)

================================================================================
                                        WARNINGS
                       Please study these warnings very carefully!
================================================================================


WARNING: CIS/ROCIS methods need fully converged wavefunctions
  ===> : Setting SCFConvForced true
         You can overwrite this default with %scf ConvForced false 


INFO   : the flag for use of LIBINT has been found!

================================================================================
                                       INPUT FILE
================================================================================
NAME = AB_4.0A.inp
|  1> ! wb97m-d3bj zora-tzvp autoaux rijcosx veryTightSCF Grid4 nofinalgrid zora
|  2> ! NormalPrint
|  3> 
|  4> %maxcore 7500
|  5> %pal
|  6> nprocs 96
|  7> end
|  8> 
|  9> %rocis NRoots 200
| 10> MaxDim   10
| 11> maxcore  10000
| 12> MaxIter  50
| 13> RTol     1e-6
| 14> OrbWin = 7,24,0,330
| 15> doquad true
| 16> DoDFTCIS true
| 17> DFTCIS_c = 0.18, 0.20, 0.40
| 18> end
| 19> 
| 20> 
| 21> * xyz 0 1
| 22> N        -1.161000    3.380000    2.222000
| 23> C        -0.029000    3.640000    1.356000
| 24> C         0.140000    5.138000    1.152000
| 25> O         1.439000    5.661000    1.295000
| 26> O        -0.871000    5.781000    0.877000
| 27> C        -0.222000    3.000000   -0.010000
| 28> C        -0.206000    1.490000   -0.011000
| 29> C        -1.411000    0.777000   -0.003000
| 30> C         1.014000    0.803000   -0.021000
| 31> C         1.029000   -0.598000   -0.023000
| 32> C        -0.176000   -1.310000   -0.014000
| 33> C        -1.397000   -0.623000   -0.005000
| 34> H         0.874000    3.237000    1.816000
| 35> H         0.578000    3.348000   -0.663000
| 36> H        -1.174000    3.337000   -0.420000
| 37> H        -2.352000    1.307000    0.004000
| 38> H         1.943000    1.352000   -0.027000
| 39> H         1.969000   -1.128000   -0.030000
| 40> H        -0.166000   -2.390000   -0.016000
| 41> H        -2.325000   -1.173000    0.001000
| 42> H        -1.265000    2.383000    2.352000
| 43> H        -1.008000    3.821000    3.118000
| 44> H         1.422000    6.609000    1.146000
| 45> N         0.111000    4.962000   -5.408000
| 46> C         0.136000    3.503000   -5.385000
| 47> C        -0.956000    3.021000   -6.338000
| 48> O        -2.077000    3.460000   -6.439000
| 49> O        -0.516000    2.005000   -7.088000
| 50> C        -0.178000    2.969000   -3.970000
| 51> C        -0.177000    1.478000   -3.961000
| 52> C        -1.382000    0.770000   -3.951000
| 53> C         1.042000    0.791000   -3.981000
| 54> C         1.067000   -0.598000   -3.975000
| 55> C        -0.150000   -1.282000   -3.930000
| 56> O        -0.063000   -2.640000   -3.916000
| 57> C        -1.380000   -0.621000   -3.932000
| 58> H        -0.805000    5.407000   -5.348000
| 59> H         1.154000    3.130000   -5.707000
| 60> H         0.579000    3.377000   -3.263000
| 61> H        -1.141000    3.381000   -3.602000
| 62> H        -2.334000    1.310000   -3.957000
| 63> H         1.982000    1.348000   -3.996000
| 64> H         2.008000   -1.146000   -3.999000
| 65> H        -2.314000   -1.180000   -3.931000
| 66> H        -0.848000   -3.063000   -3.471000
| 67> H        -1.200000    1.616000   -7.712000
| 68> H         0.540000    5.262000   -6.273000
| 69> *
| 70> 
| 71>                          ****END OF INPUT****
================================================================================

                       ****************************
                       * Single Point Calculation *
                       ****************************

---------------------------------
CARTESIAN COORDINATES (ANGSTROEM)
---------------------------------
  N     -1.161000    3.380000    2.222000
  C     -0.029000    3.640000    1.356000
  C      0.140000    5.138000    1.152000
  O      1.439000    5.661000    1.295000
  O     -0.871000    5.781000    0.877000
  C     -0.222000    3.000000   -0.010000
  C     -0.206000    1.490000   -0.011000
  C     -1.411000    0.777000   -0.003000
  C      1.014000    0.803000   -0.021000
  C      1.029000   -0.598000   -0.023000
  C     -0.176000   -1.310000   -0.014000
  C     -1.397000   -0.623000   -0.005000
  H      0.874000    3.237000    1.816000
  H      0.578000    3.348000   -0.663000
  H     -1.174000    3.337000   -0.420000
  H     -2.352000    1.307000    0.004000
  H      1.943000    1.352000   -0.027000
  H      1.969000   -1.128000   -0.030000
  H     -0.166000   -2.390000   -0.016000
  H     -2.325000   -1.173000    0.001000
  H     -1.265000    2.383000    2.352000
  H     -1.008000    3.821000    3.118000
  H      1.422000    6.609000    1.146000
  N      0.111000    4.962000   -5.408000
  C      0.136000    3.503000   -5.385000
  C     -0.956000    3.021000   -6.338000
  O     -2.077000    3.460000   -6.439000
  O     -0.516000    2.005000   -7.088000
  C     -0.178000    2.969000   -3.970000
  C     -0.177000    1.478000   -3.961000
  C     -1.382000    0.770000   -3.951000
  C      1.042000    0.791000   -3.981000
  C      1.067000   -0.598000   -3.975000
  C     -0.150000   -1.282000   -3.930000
  O     -0.063000   -2.640000   -3.916000
  C     -1.380000   -0.621000   -3.932000
  H     -0.805000    5.407000   -5.348000
  H      1.154000    3.130000   -5.707000
  H      0.579000    3.377000   -3.263000
  H     -1.141000    3.381000   -3.602000
  H     -2.334000    1.310000   -3.957000
  H      1.982000    1.348000   -3.996000
  H      2.008000   -1.146000   -3.999000
  H     -2.314000   -1.180000   -3.931000
  H     -0.848000   -3.063000   -3.471000
  H     -1.200000    1.616000   -7.712000
  H      0.540000    5.262000   -6.273000

----------------------------
CARTESIAN COORDINATES (A.U.)
----------------------------
  NO LB      ZA    FRAG     MASS         X           Y           Z
   0 N     7.0000    0    14.007   -2.193972    6.387274    4.198971
   1 C     6.0000    0    12.011   -0.054802    6.878603    2.562469
   2 C     6.0000    0    12.011    0.264562    9.709413    2.176965
   3 O     8.0000    0    15.999    2.719316   10.697740    2.447195
   4 O     8.0000    0    15.999   -1.645951   10.924507    1.657290
   5 C     6.0000    0    12.011   -0.419519    5.669178   -0.018897
   6 C     6.0000    0    12.011   -0.389284    2.815692   -0.020787
   7 C     6.0000    0    12.011   -2.666404    1.468317   -0.005669
   8 C     6.0000    0    12.011    1.916182    1.517450   -0.039684
   9 C     6.0000    0    12.011    1.944528   -1.130056   -0.043464
  10 C     6.0000    0    12.011   -0.332592   -2.475541   -0.026456
  11 C     6.0000    0    12.011   -2.639947   -1.177299   -0.009449
  12 H     1.0000    0     1.008    1.651621    6.117043    3.431743
  13 H     1.0000    0     1.008    1.092262    6.326803   -1.252888
  14 H     1.0000    0     1.008   -2.218538    6.306016   -0.793685
  15 H     1.0000    0     1.008   -4.444636    2.469872    0.007559
  16 H     1.0000    0     1.008    3.671738    2.554910   -0.051023
  17 H     1.0000    0     1.008    3.720871   -2.131611   -0.056692
  18 H     1.0000    0     1.008   -0.313695   -4.516445   -0.030236
  19 H     1.0000    0     1.008   -4.393613   -2.216649    0.001890
  20 H     1.0000    0     1.008   -2.390504    4.503217    4.444636
  21 H     1.0000    0     1.008   -1.904844    7.220644    5.892166
  22 H     1.0000    0     1.008    2.687191   12.489200    2.165626
  23 N     7.0000    0    14.007    0.209760    9.376821  -10.219639
  24 C     6.0000    0    12.011    0.257003    6.619711  -10.176175
  25 C     6.0000    0    12.011   -1.806578    5.708863  -11.977084
  26 O     8.0000    0    15.999   -3.924961    6.538452  -12.167947
  27 O     8.0000    0    15.999   -0.975099    3.788901  -13.394379
  28 C     6.0000    0    12.011   -0.336371    5.610597   -7.502213
  29 C     6.0000    0    12.011   -0.334482    2.793015   -7.485205
  30 C     6.0000    0    12.011   -2.611602    1.455089   -7.466308
  31 C     6.0000    0    12.011    1.969095    1.494773   -7.523000
  32 C     6.0000    0    12.011    2.016338   -1.130056   -7.511661
  33 C     6.0000    0    12.011   -0.283459   -2.422629   -7.426624
  34 O     8.0000    0    15.999   -0.119053   -4.988877   -7.400168
  35 C     6.0000    0    12.011   -2.607822   -1.173520   -7.430403
  36 H     1.0000    0     1.008   -1.521230   10.217749  -10.106255
  37 H     1.0000    0     1.008    2.180744    5.914843  -10.784667
  38 H     1.0000    0     1.008    1.094151    6.381605   -6.166176
  39 H     1.0000    0     1.008   -2.156178    6.389164   -6.806794
  40 H     1.0000    0     1.008   -4.410621    2.475541   -7.477646
  41 H     1.0000    0     1.008    3.745437    2.547351   -7.551346
  42 H     1.0000    0     1.008    3.794570   -2.165626   -7.557015
  43 H     1.0000    0     1.008   -4.372826   -2.229877   -7.428513
  44 H     1.0000    0     1.008   -1.602488   -5.788231   -6.559239
  45 H     1.0000    0     1.008   -2.267671    3.053797  -14.573568
  46 H     1.0000    0     1.008    1.020452    9.943739  -11.854252

--------------------------------
INTERNAL COORDINATES (ANGSTROEM)
--------------------------------
 N      0   0   0     0.000000000000     0.00000000     0.00000000
 C      1   0   0     1.448785698439     0.00000000     0.00000000
 C      2   1   0     1.521243241563   110.10114448     0.00000000
 O      3   2   1     1.407614648972   117.05022556   133.02971254
 O      3   2   1     1.229306715185   116.98139621   313.01740300
 C      2   1   3     1.520790912650   111.23661411   240.38625410
 C      6   2   1     1.510085096940   114.83838268   292.44353425
 C      7   6   2     1.400163561874   120.00497330    97.92281875
 C      7   6   2     1.400167489981   119.99105042   277.87218597
 C      9   7   6     1.401081724954   119.99772222   180.05056857
 C     10   9   7     1.399660673163   119.96287959   359.95287817
 C      8   7   6     1.400071426749   120.03880233   179.94900907
 H      2   1   3     1.090604419577   109.17809817   119.84107938
 H      6   2   1     1.089730700678   108.10031629   171.64548782
 H      6   2   1     1.089941741562   108.57875707    54.14358701
 H      8   7   6     1.080013888800   119.99881670     0.00000000
 H      9   7   6     1.079109818322   120.03546327     0.06097034
 H     10   9   7     1.079142715307   120.02890285   180.04328364
 H     11  10   9     1.080048147075   120.04559347   179.97112658
 H     12   8   7     1.078758545737   120.08004065   180.00980655
 H      1   2   3     1.010804135330   109.52857315   180.02945076
 H      1   2   3     1.010299955459   109.47858171   299.97462776
 H      4   3   2     0.959788518373   109.56465473   180.09342224
 N     14   6   2     5.033697448198   126.80897701   225.07719221
 C     24  14   6     1.459395422769    70.30594821   278.71488363
 C     25  24  14     1.527415136759   107.06162666   136.43330939
 O     26  25  24     1.208123751939   126.93214213   316.77019493
 O     26  25  24     1.337294283245   110.75917532   136.86541163
 C     25  24  14     1.544660804190   110.88957769    18.25599094
 C     29  25  24     1.491027498070   110.55422417   178.88500017
 C     30  29  25     1.397636934257   120.39941338   257.17422522
 C     30  29  25     1.399403444329   119.43345498    76.31117143
 C     32  30  29     1.389237920588   120.42787141   180.09121027
 C     33  32  30     1.396771276910   118.29925086   359.13144361
 O     34  33  32     1.360855980624   115.67731631   180.47965820
 C     31  30  29     1.391131194388   120.35656436   180.50634926
 H     24  14   6     1.020137735798    99.65583538    33.83531512
 H     25  24  14     1.130989389871   109.91601843   257.34556084
 H     29  25  24     1.113266365251   108.47161050   301.09901388
 H     29  25  24     1.110196829396   110.59031544    54.64763915
 H     31  30  29     1.094504454080   119.99654336     0.43888147
 H     32  30  29     1.092736930830   119.95289973     0.42333481
 H     33  32  30     1.089202001467   121.23076552   179.46835982
 H     36  31  30     1.088502641246   120.81581999   180.42229923
 H     35  34  33     0.996583664325   112.19720479   153.20413588
 H     28  26  25     1.004267394671   114.75016605   177.62869189
 H     24  14   6     1.011071708634   149.56842057   187.23953877

---------------------------
INTERNAL COORDINATES (A.U.)
---------------------------
 N      0   0   0     0.000000000000     0.00000000     0.00000000
 C      1   0   0     2.737808196791     0.00000000     0.00000000
 C      2   1   0     2.874733109632   110.10114448     0.00000000
 O      3   2   1     2.660006188652   117.05022556   133.02971254
 O      3   2   1     2.323053026291   116.98139621   313.01740300
 C      2   1   3     2.873878331865   111.23661411   240.38625410
 C      6   2   1     2.853647272132   114.83838268   292.44353425
 C      7   6   2     2.645925674638   120.00497330    97.92281875
 C      7   6   2     2.645933097684   119.99105042   277.87218597
 C      9   7   6     2.647660751405   119.99772222   180.05056857
 C     10   9   7     2.644975352699   119.96287959   359.95287817
 C      8   7   6     2.645751564485   120.03880233   179.94900907
 H      2   1   3     2.060943673444   109.17809817   119.84107938
 H      6   2   1     2.059292584007   108.10031629   171.64548782
 H      6   2   1     2.059691393482   108.57875707    54.14358701
 H      8   7   6     2.040930470662   119.99881670     0.00000000
 H      9   7   6     2.039222025055   120.03546327     0.06097034
 H     10   9   7     2.039284191346   120.02890285   180.04328364
 H     11  10   9     2.040995209421   120.04559347   179.97112658
 H     12   8   7     2.038558216070   120.08004065   180.00980655
 H      1   2   3     1.910142990809   109.52857315   180.02945076
 H      1   2   3     1.909190228930   109.47858171   299.97462776
 H      4   3   2     1.813737446206   109.56465473   180.09342224
 N     14   6   2     9.512309618113   126.80897701   225.07719221
 C     24  14   6     2.757857670132    70.30594821   278.71488363
 C     25  24  14     2.886396301280   107.06162666   136.43330939
 O     26  25  24     2.283023027051   126.93214213   316.77019493
 O     26  25  24     2.527119955792   110.75917532   136.86541163
 C     25  24  14     2.918985889721   110.88957769    18.25599094
 C     29  25  24     2.817633629498   110.55422417   178.88500017
 C     30  29  25     2.641151040400   120.39941338   257.17422522
 C     30  29  25     2.644489260648   119.43345498    76.31117143
 C     32  30  29     2.625279204770   120.42787141   180.09121027
 C     33  32  30     2.639515185087   118.29925086   359.13144361
 O     34  33  32     2.571645111088   115.67731631   180.47965820
 C     31  30  29     2.628856973749   120.35656436   180.50634926
 H     24  14   6     1.927780939538    99.65583538    33.83531512
 H     25  24  14     2.137260207226   109.91601843   257.34556084
 H     29  25  24     2.103768544431   108.47161050   301.09901388
 H     29  25  24     2.097967962305   110.59031544    54.64763915
 H     31  30  29     2.068313670567   119.99654336     0.43888147
 H     32  30  29     2.064973535691   119.95289973     0.42333481
 H     33  32  30     2.058293487292   121.23076552   179.46835982
 H     36  31  30     2.056971888005   120.81581999   180.42229923
 H     35  34  33     1.883270195114   112.19720479   153.20413588
 H     28  26  25     1.897790341155   114.75016605   177.62869189
 H     24  14   6     1.910648631074   149.56842057   187.23953877

---------------------
BASIS SET INFORMATION
---------------------
There are 4 groups of distinct atoms

 Group   1 Type N   : 11s6p1d contracted to 6s3p1d pattern {611111/411/1}
 Group   2 Type C   : 11s6p1d contracted to 6s3p1d pattern {611111/411/1}
 Group   3 Type O   : 11s6p1d contracted to 6s3p1d pattern {611111/411/1}
 Group   4 Type H   : 5s1p contracted to 3s1p pattern {311/1}

Atom   0N    basis set group =>   1
Atom   1C    basis set group =>   2
Atom   2C    basis set group =>   2
Atom   3O    basis set group =>   3
Atom   4O    basis set group =>   3
Atom   5C    basis set group =>   2
Atom   6C    basis set group =>   2
Atom   7C    basis set group =>   2
Atom   8C    basis set group =>   2
Atom   9C    basis set group =>   2
Atom  10C    basis set group =>   2
Atom  11C    basis set group =>   2
Atom  12H    basis set group =>   4
Atom  13H    basis set group =>   4
Atom  14H    basis set group =>   4
Atom  15H    basis set group =>   4
Atom  16H    basis set group =>   4
Atom  17H    basis set group =>   4
Atom  18H    basis set group =>   4
Atom  19H    basis set group =>   4
Atom  20H    basis set group =>   4
Atom  21H    basis set group =>   4
Atom  22H    basis set group =>   4
Atom  23N    basis set group =>   1
Atom  24C    basis set group =>   2
Atom  25C    basis set group =>   2
Atom  26O    basis set group =>   3
Atom  27O    basis set group =>   3
Atom  28C    basis set group =>   2
Atom  29C    basis set group =>   2
Atom  30C    basis set group =>   2
Atom  31C    basis set group =>   2
Atom  32C    basis set group =>   2
Atom  33C    basis set group =>   2
Atom  34O    basis set group =>   3
Atom  35C    basis set group =>   2
Atom  36H    basis set group =>   4
Atom  37H    basis set group =>   4
Atom  38H    basis set group =>   4
Atom  39H    basis set group =>   4
Atom  40H    basis set group =>   4
Atom  41H    basis set group =>   4
Atom  42H    basis set group =>   4
Atom  43H    basis set group =>   4
Atom  44H    basis set group =>   4
Atom  45H    basis set group =>   4
Atom  46H    basis set group =>   4
---------------------------------
AUXILIARY/J BASIS SET INFORMATION
---------------------------------
There are 4 groups of distinct atoms

 Group   1 Type N   : 16s13p12d3f contracted to 16s13p12d3f pattern {1111111111111111/1111111111111/111111111111/111}
 Group   2 Type C   : 16s13p12d2f contracted to 16s13p12d2f pattern {1111111111111111/1111111111111/111111111111/11}
 Group   3 Type O   : 16s13p12d3f contracted to 16s13p12d3f pattern {1111111111111111/1111111111111/111111111111/111}
 Group   4 Type H   : 11s3p1d contracted to 11s3p1d pattern {11111111111/111/1}

Atom   0N    basis set group =>   1
Atom   1C    basis set group =>   2
Atom   2C    basis set group =>   2
Atom   3O    basis set group =>   3
Atom   4O    basis set group =>   3
Atom   5C    basis set group =>   2
Atom   6C    basis set group =>   2
Atom   7C    basis set group =>   2
Atom   8C    basis set group =>   2
Atom   9C    basis set group =>   2
Atom  10C    basis set group =>   2
Atom  11C    basis set group =>   2
Atom  12H    basis set group =>   4
Atom  13H    basis set group =>   4
Atom  14H    basis set group =>   4
Atom  15H    basis set group =>   4
Atom  16H    basis set group =>   4
Atom  17H    basis set group =>   4
Atom  18H    basis set group =>   4
Atom  19H    basis set group =>   4
Atom  20H    basis set group =>   4
Atom  21H    basis set group =>   4
Atom  22H    basis set group =>   4
Atom  23N    basis set group =>   1
Atom  24C    basis set group =>   2
Atom  25C    basis set group =>   2
Atom  26O    basis set group =>   3
Atom  27O    basis set group =>   3
Atom  28C    basis set group =>   2
Atom  29C    basis set group =>   2
Atom  30C    basis set group =>   2
Atom  31C    basis set group =>   2
Atom  32C    basis set group =>   2
Atom  33C    basis set group =>   2
Atom  34O    basis set group =>   3
Atom  35C    basis set group =>   2
Atom  36H    basis set group =>   4
Atom  37H    basis set group =>   4
Atom  38H    basis set group =>   4
Atom  39H    basis set group =>   4
Atom  40H    basis set group =>   4
Atom  41H    basis set group =>   4
Atom  42H    basis set group =>   4
Atom  43H    basis set group =>   4
Atom  44H    basis set group =>   4
Atom  45H    basis set group =>   4
Atom  46H    basis set group =>   4
---------------------------------
AUXILIARY/C BASIS SET INFORMATION
---------------------------------
There are 4 groups of distinct atoms

 Group   1 Type N   : 16s13p12d3f contracted to 16s13p12d3f pattern {1111111111111111/1111111111111/111111111111/111}
 Group   2 Type C   : 16s13p12d2f contracted to 16s13p12d2f pattern {1111111111111111/1111111111111/111111111111/11}
 Group   3 Type O   : 16s13p12d3f contracted to 16s13p12d3f pattern {1111111111111111/1111111111111/111111111111/111}
 Group   4 Type H   : 11s3p1d contracted to 11s3p1d pattern {11111111111/111/1}

Atom   0N    basis set group =>   1
Atom   1C    basis set group =>   2
Atom   2C    basis set group =>   2
Atom   3O    basis set group =>   3
Atom   4O    basis set group =>   3
Atom   5C    basis set group =>   2
Atom   6C    basis set group =>   2
Atom   7C    basis set group =>   2
Atom   8C    basis set group =>   2
Atom   9C    basis set group =>   2
Atom  10C    basis set group =>   2
Atom  11C    basis set group =>   2
Atom  12H    basis set group =>   4
Atom  13H    basis set group =>   4
Atom  14H    basis set group =>   4
Atom  15H    basis set group =>   4
Atom  16H    basis set group =>   4
Atom  17H    basis set group =>   4
Atom  18H    basis set group =>   4
Atom  19H    basis set group =>   4
Atom  20H    basis set group =>   4
Atom  21H    basis set group =>   4
Atom  22H    basis set group =>   4
Atom  23N    basis set group =>   1
Atom  24C    basis set group =>   2
Atom  25C    basis set group =>   2
Atom  26O    basis set group =>   3
Atom  27O    basis set group =>   3
Atom  28C    basis set group =>   2
Atom  29C    basis set group =>   2
Atom  30C    basis set group =>   2
Atom  31C    basis set group =>   2
Atom  32C    basis set group =>   2
Atom  33C    basis set group =>   2
Atom  34O    basis set group =>   3
Atom  35C    basis set group =>   2
Atom  36H    basis set group =>   4
Atom  37H    basis set group =>   4
Atom  38H    basis set group =>   4
Atom  39H    basis set group =>   4
Atom  40H    basis set group =>   4
Atom  41H    basis set group =>   4
Atom  42H    basis set group =>   4
Atom  43H    basis set group =>   4
Atom  44H    basis set group =>   4
Atom  45H    basis set group =>   4
Atom  46H    basis set group =>   4
----------------------------------
AUXILIARY/JK BASIS SET INFORMATION
----------------------------------
There are 4 groups of distinct atoms

 Group   1 Type N   : 16s13p12d3f contracted to 16s13p12d3f pattern {1111111111111111/1111111111111/111111111111/111}
 Group   2 Type C   : 16s13p12d2f contracted to 16s13p12d2f pattern {1111111111111111/1111111111111/111111111111/11}
 Group   3 Type O   : 16s13p12d3f contracted to 16s13p12d3f pattern {1111111111111111/1111111111111/111111111111/111}
 Group   4 Type H   : 11s3p1d contracted to 11s3p1d pattern {11111111111/111/1}

Atom   0N    basis set group =>   1
Atom   1C    basis set group =>   2
Atom   2C    basis set group =>   2
Atom   3O    basis set group =>   3
Atom   4O    basis set group =>   3
Atom   5C    basis set group =>   2
Atom   6C    basis set group =>   2
Atom   7C    basis set group =>   2
Atom   8C    basis set group =>   2
Atom   9C    basis set group =>   2
Atom  10C    basis set group =>   2
Atom  11C    basis set group =>   2
Atom  12H    basis set group =>   4
Atom  13H    basis set group =>   4
Atom  14H    basis set group =>   4
Atom  15H    basis set group =>   4
Atom  16H    basis set group =>   4
Atom  17H    basis set group =>   4
Atom  18H    basis set group =>   4
Atom  19H    basis set group =>   4
Atom  20H    basis set group =>   4
Atom  21H    basis set group =>   4
Atom  22H    basis set group =>   4
Atom  23N    basis set group =>   1
Atom  24C    basis set group =>   2
Atom  25C    basis set group =>   2
Atom  26O    basis set group =>   3
Atom  27O    basis set group =>   3
Atom  28C    basis set group =>   2
Atom  29C    basis set group =>   2
Atom  30C    basis set group =>   2
Atom  31C    basis set group =>   2
Atom  32C    basis set group =>   2
Atom  33C    basis set group =>   2
Atom  34O    basis set group =>   3
Atom  35C    basis set group =>   2
Atom  36H    basis set group =>   4
Atom  37H    basis set group =>   4
Atom  38H    basis set group =>   4
Atom  39H    basis set group =>   4
Atom  40H    basis set group =>   4
Atom  41H    basis set group =>   4
Atom  42H    basis set group =>   4
Atom  43H    basis set group =>   4
Atom  44H    basis set group =>   4
Atom  45H    basis set group =>   4
Atom  46H    basis set group =>   4


           ************************************************************
           *        Program running with 96 parallel MPI-processes    *
           *            working without local directories             *
           ************************************************************
------------------------------------------------------------------------------
                           ORCA GTO INTEGRAL CALCULATION
                           -- RI-GTO INTEGRALS CHOSEN --
------------------------------------------------------------------------------

                         BASIS SET STATISTICS AND STARTUP INFO

Gaussian basis set:
 # of primitive gaussian shells          ...  582
 # of primitive gaussian functions       ... 1026
 # of contracted shells                  ...  338
 # of contracted basis functions         ...  632
 Highest angular momentum                ...    2
 Maximum contraction depth               ...    6
Auxiliary gaussian basis set:
 # of primitive gaussian shells          ... 1412
 # of primitive gaussian functions       ... 3824
 # of contracted shells                  ... 1412
 # of contracted aux-basis functions     ... 3824
 Highest angular momentum                ...    3
 Maximum contraction depth               ...    1
Ratio of auxiliary to basis functions    ...  6.05
Integral package used                  ... LIBINT
 One Electron integrals                  ... done
 Ordering auxiliary basis shells         ... done
 Integral threshhold             Thresh  ...  1.000e-12
 Primitive cut-off               TCut    ...  1.000e-14
 Pre-screening matrix                    ... done
 Shell pair data                         ... 
 Ordering of the shell pairs             ... done (   0.007 sec) 36678 of 57291 pairs
 Determination of significant pairs      ... done (   0.000 sec)
 Creation of shell pair data             ... done (   0.004 sec)
 Storage of shell pair data              ... done (   0.063 sec)
 Shell pair data done in (   0.074 sec)
 Computing two index integrals           ... done
 Cholesky decomposition of the V-matrix  ... done


Timings:
 Total evaluation time                   ...   2.642 sec (  0.044 min)
 One electron matrix time                ...   0.269 sec (  0.004 min) = 10.2%
 Schwartz matrix evaluation time         ...   0.271 sec (  0.005 min) = 10.2%
 Two index repulsion integral time       ...   0.256 sec (  0.004 min) =  9.7%
 Cholesky decomposition of V             ...   1.757 sec (  0.029 min) = 66.5%
 Three index repulsion integral time     ...   0.000 sec (  0.000 min) =  0.0%



           ************************************************************
           *        Program running with 96 parallel MPI-processes    *
           *            working without local directories             *
           ************************************************************
------------------------------------------------------------------------------
                          ORCA RELATIVISTIC HAMILTONIAN
------------------------------------------------------------------------------

Relativistic Method            ... ZORA(MP)
Treatment of potential         ... Van Wuellen
Nucleus model                  ... Point Nucleus
Speed of light used            ... 137.03598950000000


            *************************************************
            *         ZERO ORDER REGULAR APPROXIMATION      *
            *                     ZORA(MP)                  *
            *            Programmed by FN according to      *
            *                   C. van Wuellen              *
            *       J. Chem. Phys. (1998) vol 109, 392-399  *
            *************************************************

Terms included in model potential: +V(e,N)+V(C)+V(Xa)+V(VWN-V)
Basis function cutoff value   ... 1.000000e-12
Loading the fitted atomic densities (ZORA)   ... done
Calculating the cutoffs                      ... done
Number of fit functions                      ... 385
Setting up the integration grid ... done


           ************************************************************
           *        Program running with 96 parallel MPI-processes    *
           *            working without local directories             *
           ************************************************************
-------------------------------------------------------------------------------
                                 ORCA SCF
-------------------------------------------------------------------------------

------------
SCF SETTINGS
------------
Hamiltonian:
 Density Functional     Method          .... DFT(GTOs)
 Exchange Functional    Exchange        .... WB97M-V
 Correlation Functional Correlation     .... WB97M-V
 Gradients option       PostSCFGGA      .... off
 Hybrid DFT is turned on
   Fraction HF Exchange ScalHFX         ....  0.150000
   Scaling of DF-GGA-X  ScalDFX         ....  0.000000
   Scaling of DF-GGA-C  ScalDFC         ....  1.000000
   Scaling of DF-LDA-C  ScalLDAC        ....  1.000000
   Perturbative correction              ....  0.000000
   Density functional embedding theory  .... OFF
 Long-range corrected/Screened/Range-Separated Hybrid DFT is turned on
   Amount of maximum screened exact exchange              ....  0.850000
   Range separation parameter mu (erf(mu*r12)/r12)        ....  0.300000
 RI-approximation to the Coulomb term is turned on
   Number of auxiliary basis functions  .... 3824
   RIJ-COSX (HFX calculated with COS-X)).... on

Relativistic Settings:
 Scalar relativistic method             .... ZORA
 Speed of light used       Velit        ....       137.035989
Orbital energies will be scaled


General Settings:
 Integral files         IntName         .... AB_4.0A
 Hartree-Fock type      HFTyp           .... RHF
 Total Charge           Charge          ....    0
 Multiplicity           Mult            ....    1
 Number of Electrons    NEL             ....  184
 Basis Dimension        Dim             ....  632
 Nuclear Repulsion      ENuc            ....   2176.5152180584 Eh

Convergence Acceleration:
 DIIS                   CNVDIIS         .... on
   Start iteration      DIISMaxIt       ....    12
   Startup error        DIISStart       ....  0.200000
   # of expansion vecs  DIISMaxEq       ....     5
   Bias factor          DIISBfac        ....   1.050
   Max. coefficient     DIISMaxC        ....  10.000
 Newton-Raphson         CNVNR           .... off
 SOSCF                  CNVSOSCF        .... on
   Start iteration      SOSCFMaxIt      ....   150
   Startup grad/error   SOSCFStart      ....  0.003300
 Level Shifting         CNVShift        .... on
   Level shift para.    LevelShift      ....    0.2500
   Turn off err/grad.   ShiftErr        ....    0.0010
 Zerner damping         CNVZerner       .... off
 Static damping         CNVDamp         .... on
   Fraction old density DampFac         ....    0.7000
   Max. Damping (<1)    DampMax         ....    0.9800
   Min. Damping (>=0)   DampMin         ....    0.0000
   Turn off err/grad.   DampErr         ....    0.1000
 Fernandez-Rico         CNVRico         .... off

SCF Procedure:
 Maximum # iterations   MaxIter         ....   125
 SCF integral mode      SCFMode         .... Direct
   Integral package                     .... LIBINT
 Reset frequency        DirectResetFreq ....    20
 Integral Threshold     Thresh          ....  1.000e-12 Eh
 Primitive CutOff       TCut            ....  1.000e-14 Eh

Convergence Tolerance:
 Convergence Check Mode ConvCheckMode   .... Total+1el-Energy
 Convergence forced     ConvForced      .... 1
 Energy Change          TolE            ....  1.000e-09 Eh
 1-El. energy change                    ....  1.000e-06 Eh
 Orbital Gradient       TolG            ....  2.000e-06
 Orbital Rotation angle TolX            ....  2.000e-06
 DIIS Error             TolErr          ....  1.000e-08


Diagonalization of the overlap matrix:
Smallest eigenvalue                        ... 5.330e-06
Time for diagonalization                   ...    0.135 sec
Threshold for overlap eigenvalues          ... 1.000e-08
Number of eigenvalues below threshold      ... 0
Time for construction of square roots      ...    0.123 sec
Total time needed                          ...    0.260 sec

-------------------
DFT GRID GENERATION
-------------------

General Integration Accuracy     IntAcc      ...  4.670
Radial Grid Type                 RadialGrid  ... Gauss-Chebyshev
Angular Grid (max. acc.)         AngularGrid ... Lebedev-302
Angular grid pruning method      GridPruning ... 3 (G Style)
Weight generation scheme         WeightScheme... Becke
Basis function cutoff            BFCut       ...    1.0000e-12
Integration weight cutoff        WCut        ...    1.0000e-14
Grids for H and He will be reduced by one unit

# of grid points (after initial pruning)     ... 229968 (   0.0 sec)
# of grid points (after weights+screening)   ... 198440 (   0.3 sec)
nearest neighbour list constructed           ...    0.0 sec
Grid point re-assignment to atoms done       ...    0.1 sec
Grid point division into batches done        ...    0.7 sec
Reduced shell lists constructed in    0.8 sec

Total number of grid points                  ...   198440
Total number of batches                      ...     3126
Average number of points per batch           ...       63
Average number of grid points per atom       ...     4222
Average number of shells per batch           ...   122.29 (36.18%)
Average number of basis functions per batch  ...   231.12 (36.57%)
Average number of large shells per batch     ...    77.06 (63.01%)
Average number of large basis fcns per batch ...   147.53 (63.83%)
Maximum spatial batch extension              ...  12.33,  7.22,  8.60 au
Average spatial batch extension              ...   0.02,  0.02,  0.02 au

Time for grid setup =    1.238 sec

------------------------------
INITIAL GUESS: MODEL POTENTIAL
------------------------------
Loading ZORA relativistic densities                ... done
Calculating cut-offs                               ... done
Setting up the integral package                    ... done
Initializing the effective Hamiltonian             ... done
Starting the Coulomb interaction                   ... done (   0.1 sec)
Reading the grid                                   ... done
Mapping shells                                     ... done
Starting the XC term evaluation                    ... done (   0.1 sec)
  promolecular density results
     # of electrons  =    183.988088954
     EX              =   -152.519482538
     EC              =     -6.147680239
     EX+EC           =   -158.667162777
Transforming the Hamiltonian                       ... done (   0.1 sec)
Diagonalizing the Hamiltonian                      ... done (   0.1 sec)
Back transforming the eigenvectors                 ... done (   0.1 sec)
Now organizing SCF variables                       ... done
                      ------------------
                      INITIAL GUESS DONE (   1.8 sec)
                      ------------------
--------------------
COSX GRID GENERATION
--------------------

General Integration Accuracy     IntAcc      ...  3.340
Radial Grid Type                 RadialGrid  ... Gauss-Chebyshev
Angular Grid (max. acc.)         AngularGrid ... Lebedev-50
Angular grid pruning method      GridPruning ... 3 (G Style)
Weight generation scheme         WeightScheme... Becke
Basis function cutoff            BFCut       ...    1.0000e-12
Integration weight cutoff        WCut        ...    1.0000e-14
Grids for H and He will be reduced by one unit

# of grid points (after initial pruning)     ...  21512 (   0.0 sec)
# of grid points (after weights+screening)   ...  19239 (   0.0 sec)
nearest neighbour list constructed           ...    0.0 sec
Grid point re-assignment to atoms done       ...    0.0 sec
Grid point division into batches done        ...    0.0 sec
Reduced shell lists constructed in    0.0 sec

Total number of grid points                  ...    19239
Total number of batches                      ...      325
Average number of points per batch           ...       59
Average number of grid points per atom       ...      409
Average number of shells per batch           ...   115.60 (34.20%)
Average number of basis functions per batch  ...   217.60 (34.43%)
Average number of large shells per batch     ...    76.00 (65.74%)
Average number of large basis fcns per batch ...   148.00 (68.01%)
Maximum spatial batch extension              ...   9.82,  4.25,  4.17 au
Average spatial batch extension              ...   0.05,  0.03,  0.03 au

Overlap Fitting                  UseSFitting ... on
Constructing numerical overlap ... done (      0.0 sec)
Inverting numerical overlap    ... done (      0.0 sec)
Obtaining analytic overlap     ... done (      0.0 sec)
Final contraction and storage  ... done (      0.1 sec)


General Integration Accuracy     IntAcc      ...  3.670
Radial Grid Type                 RadialGrid  ... Gauss-Chebyshev
Angular Grid (max. acc.)         AngularGrid ... Lebedev-50
Angular grid pruning method      GridPruning ... 3 (G Style)
Weight generation scheme         WeightScheme... Becke
Basis function cutoff            BFCut       ...    1.0000e-12
Integration weight cutoff        WCut        ...    1.0000e-14
Grids for H and He will be reduced by one unit

# of grid points (after initial pruning)     ...  27362 (   0.0 sec)
# of grid points (after weights+screening)   ...  24404 (   0.0 sec)
nearest neighbour list constructed           ...    0.0 sec
Grid point re-assignment to atoms done       ...    0.0 sec
Grid point division into batches done        ...    0.0 sec
Reduced shell lists constructed in    0.0 sec

Total number of grid points                  ...    24404
Total number of batches                      ...      403
Average number of points per batch           ...       60
Average number of grid points per atom       ...      519
Average number of shells per batch           ...   118.67 (35.11%)
Average number of basis functions per batch  ...   224.00 (35.44%)
Average number of large shells per batch     ...    78.17 (65.87%)
Average number of large basis fcns per batch ...   150.50 (67.19%)
Maximum spatial batch extension              ...  11.34,  4.09,  6.14 au
Average spatial batch extension              ...   0.05,  0.03,  0.04 au

Overlap Fitting                  UseSFitting ... on
Constructing numerical overlap ... done (      0.0 sec)
Inverting numerical overlap    ... done (      0.0 sec)
Obtaining analytic overlap     ... done (      0.0 sec)
Final contraction and storage  ... done (      0.1 sec)


General Integration Accuracy     IntAcc      ...  4.010
Radial Grid Type                 RadialGrid  ... Gauss-Chebyshev
Angular Grid (max. acc.)         AngularGrid ... Lebedev-110
Angular grid pruning method      GridPruning ... 3 (G Style)
Weight generation scheme         WeightScheme... Becke
Basis function cutoff            BFCut       ...    1.0000e-12
Integration weight cutoff        WCut        ...    1.0000e-14
Grids for H and He will be reduced by one unit

# of grid points (after initial pruning)     ...  51166 (   0.0 sec)
# of grid points (after weights+screening)   ...  45342 (   0.1 sec)
nearest neighbour list constructed           ...    0.0 sec
Grid point re-assignment to atoms done       ...    0.0 sec
Grid point division into batches done        ...    0.0 sec
Reduced shell lists constructed in    0.0 sec

Total number of grid points                  ...    45342
Total number of batches                      ...      732
Average number of points per batch           ...       61
Average number of grid points per atom       ...      965
Average number of shells per batch           ...   120.56 (35.67%)
Average number of basis functions per batch  ...   228.11 (36.09%)
Average number of large shells per batch     ...    80.56 (66.82%)
Average number of large basis fcns per batch ...   155.00 (67.95%)
Maximum spatial batch extension              ...   9.89,  4.68,  4.19 au
Average spatial batch extension              ...   0.03,  0.03,  0.02 au

Overlap Fitting                  UseSFitting ... on
Constructing numerical overlap ... done (      0.0 sec)
Inverting numerical overlap    ... done (      0.0 sec)
Obtaining analytic overlap     ... done (      0.0 sec)
Final contraction and storage  ... done (      0.1 sec)

Time for X-Grid setup             =    0.748 sec
--------------
SCF ITERATIONS
--------------
               ***  Starting incremental Fock matrix formation  ***

                         ----------------------------
                         !        ITERATION     0   !
                         ----------------------------
   Total Energy        :   -1185.657531937492 Eh
   Energy Change       :   -1185.657531937492 Eh
   MAX-DP              :       0.187493912668
   RMS-DP              :       0.001439978777
   Actual Damping      :       0.7000
   Actual Level Shift  :       0.2500 Eh
   Int. Num. El.       :   183.99961874 (UP=   91.99980937 DN=   91.99980937)
   Exchange            :  -111.19214179
   Correlation         :    -6.06638515


                         ----------------------------
                         !        ITERATION     1   !
                         ----------------------------
   Total Energy        :   -1185.997297678156 Eh
   Energy Change       :      -0.339765740664 Eh
   MAX-DP              :       0.184800204553
   RMS-DP              :       0.001207511058
   Actual Damping      :       0.7000
   Actual Level Shift  :       0.2500 Eh
   Int. Num. El.       :   183.99955823 (UP=   91.99977912 DN=   91.99977912)
   Exchange            :  -110.35885391
   Correlation         :    -6.03748981

                               ***Turning on DIIS***

                         ----------------------------
                         !        ITERATION     2   !
                         ----------------------------
   Total Energy        :   -1186.159363165336 Eh
   Energy Change       :      -0.162065487180 Eh
   MAX-DP              :       0.360320283019
   RMS-DP              :       0.002457090332
   Actual Damping      :       0.0000
   Actual Level Shift  :       0.2500 Eh
   Int. Num. El.       :   183.99950093 (UP=   91.99975046 DN=   91.99975046)
   Exchange            :  -109.81443038
   Correlation         :    -6.01395493
   DIIS-Error          :       0.065476610580


                         ----------------------------
                         !        ITERATION     3   !
                         ----------------------------
   Total Energy        :   -1186.426003750508 Eh
   Energy Change       :      -0.266640585171 Eh
   MAX-DP              :       0.097784789222
   RMS-DP              :       0.000845970074
   Actual Damping      :       0.0000
   Actual Level Shift  :       0.2500 Eh
   Int. Num. El.       :   183.99936784 (UP=   91.99968392 DN=   91.99968392)
   Exchange            :  -108.96421218
   Correlation         :    -5.96012775
   DIIS-Error          :       0.067068885013
   DIIS coefficients:
      0.41385   0.58615


                         ----------------------------
                         !        ITERATION     4   !
                         ----------------------------
   Total Energy        :   -1186.466936033546 Eh
   Energy Change       :      -0.040932283038 Eh
   MAX-DP              :       0.016217333093
   RMS-DP              :       0.000225596718
   Actual Damping      :       0.0000
   Actual Level Shift  :       0.2500 Eh
   Int. Num. El.       :   183.99938348 (UP=   91.99969174 DN=   91.99969174)
   Exchange            :  -109.36419559
   Correlation         :    -5.97420266
   DIIS-Error          :       0.014840876727
   DIIS coefficients:
      0.08180   0.08114   0.83706


                         ----------------------------
                         !        ITERATION     5   !
                         ----------------------------
   Total Energy        :   -1186.467999376960 Eh
   Energy Change       :      -0.001063343414 Eh
   MAX-DP              :       0.005167124071
   RMS-DP              :       0.000072305200
   Actual Damping      :       0.0000
   Actual Level Shift  :       0.2500 Eh
   Int. Num. El.       :   183.99938766 (UP=   91.99969383 DN=   91.99969383)
   Exchange            :  -109.38151934
   Correlation         :    -5.97519876
   DIIS-Error          :       0.008501604930
   DIIS coefficients:
      0.00575  -0.00541   0.26627   0.73338

                      *** Initiating the SOSCF procedure ***
                           *** Shutting down DIIS ***
                      *** Re-Reading the Fockian *** 
                      *** Removing any level shift *** 

                         ----------------------------
                         !        ITERATION     6   !
                         ----------------------------
   Total Energy        :   -1186.468211012257 Eh
   Energy Change       :      -0.000211635297 Eh
   MAX-DP              :       0.003783613835
   RMS-DP              :       0.000033582462
   Orbital gradient    :       0.000788581412
   Orbital Rotation    :       0.000788581412
   Actual Damping      :       0.0000
   Int. Num. El.       :   183.99938561 (UP=   91.99969280 DN=   91.99969280)
   Exchange            :  -109.38613847
   Correlation         :    -5.97473314

               *** Restarting incremental Fock matrix formation ***

                         ----------------------------
                         !        ITERATION     7   !
                         ----------------------------
   Total Energy        :   -1186.468246890872 Eh
   Energy Change       :      -0.000035878615 Eh
   MAX-DP              :       0.010058862671
   RMS-DP              :       0.000126979473
   Orbital gradient    :       0.000189861216
   Orbital Rotation    :       0.000445064997
   Actual Damping      :       0.0000
   Int. Num. El.       :   183.99938441 (UP=   91.99969220 DN=   91.99969220)
   Exchange            :  -109.38616535
   Correlation         :    -5.97450884


                         ----------------------------
                         !        ITERATION     8   !
                         ----------------------------
   Total Energy        :   -1186.468254363915 Eh
   Energy Change       :      -0.000007473043 Eh
   MAX-DP              :       0.005386027072
   RMS-DP              :       0.000069060611
   Orbital gradient    :       0.000490777717
   Orbital Rotation    :       0.000961074527
   Actual Damping      :       0.0000
   Int. Num. El.       :   183.99938376 (UP=   91.99969188 DN=   91.99969188)
   Exchange            :  -109.38559213
   Correlation         :    -5.97435818


                         ----------------------------
                         !        ITERATION     9   !
                         ----------------------------
   Total Energy        :   -1186.468258144114 Eh
   Energy Change       :      -0.000003780199 Eh
   MAX-DP              :       0.004388442658
   RMS-DP              :       0.000055445198
   Orbital gradient    :       0.000112264754
   Orbital Rotation    :       0.000157958234
   Actual Damping      :       0.0000
   Int. Num. El.       :   183.99938334 (UP=   91.99969167 DN=   91.99969167)
   Exchange            :  -109.38602925
   Correlation         :    -5.97430572


                         ----------------------------
                         !        ITERATION    10   !
                         ----------------------------
   Total Energy        :   -1186.468258563122 Eh
   Energy Change       :      -0.000000419008 Eh
   MAX-DP              :       0.001201346243
   RMS-DP              :       0.000015094101
   Orbital gradient    :       0.000029811655
   Orbital Rotation    :       0.000030957408
   Actual Damping      :       0.0000
   Int. Num. El.       :   183.99938342 (UP=   91.99969171 DN=   91.99969171)
   Exchange            :  -109.38643527
   Correlation         :    -5.97432787


                         ----------------------------
                         !        ITERATION    11   !
                         ----------------------------
   Total Energy        :   -1186.468258678764 Eh
   Energy Change       :      -0.000000115642 Eh
   MAX-DP              :       0.000817001697
   RMS-DP              :       0.000010124374
   Orbital gradient    :       0.000013399624
   Orbital Rotation    :       0.000032858329
   Actual Damping      :       0.0000
   Int. Num. El.       :   183.99938349 (UP=   91.99969174 DN=   91.99969174)
   Exchange            :  -109.38606200
   Correlation         :    -5.97433073


                         ----------------------------
                         !        ITERATION    12   !
                         ----------------------------
   Total Energy        :   -1186.468258666622 Eh
   Energy Change       :       0.000000012142 Eh
   MAX-DP              :       0.000082819491
   RMS-DP              :       0.000001033594
   Orbital gradient    :       0.000002768626
   Orbital Rotation    :       0.000010216862
   Actual Damping      :       0.0000
   Int. Num. El.       :   183.99938346 (UP=   91.99969173 DN=   91.99969173)
   Exchange            :  -109.38618017
   Correlation         :    -5.97433098


                         ----------------------------
                         !        ITERATION    13   !
                         ----------------------------
   Total Energy        :   -1186.468258662889 Eh
   Energy Change       :       0.000000003733 Eh
   MAX-DP              :       0.000088731906
   RMS-DP              :       0.000001103262
   Orbital gradient    :       0.000003078259
   Orbital Rotation    :       0.000004336475
   Actual Damping      :       0.0000
   Int. Num. El.       :   183.99938346 (UP=   91.99969173 DN=   91.99969173)
   Exchange            :  -109.38616085
   Correlation         :    -5.97433001


                         ----------------------------
                         !        ITERATION    14   !
                         ----------------------------
   Total Energy        :   -1186.468258666610 Eh
   Energy Change       :      -0.000000003722 Eh
   MAX-DP              :       0.000012350505
   RMS-DP              :       0.000000154634
   Orbital gradient    :       0.000000702404
   Orbital Rotation    :       0.000002622248
   Actual Damping      :       0.0000
   Int. Num. El.       :   183.99938346 (UP=   91.99969173 DN=   91.99969173)
   Exchange            :  -109.38615713
   Correlation         :    -5.97433054


                         ----------------------------
                         !        ITERATION    15   !
                         ----------------------------
   Total Energy        :   -1186.468258667716 Eh
   Energy Change       :      -0.000000001105 Eh
   MAX-DP              :       0.000014141669
   RMS-DP              :       0.000000186659
   Orbital gradient    :       0.000000500143
   Orbital Rotation    :       0.000001102412
   Actual Damping      :       0.0000
   Int. Num. El.       :   183.99938346 (UP=   91.99969173 DN=   91.99969173)
   Exchange            :  -109.38616736
   Correlation         :    -5.97433107

                  ***Gradient check signals convergence***
              ***Rediagonalizing the Fockian in SOSCF/NRSCF***

               *****************************************************
               *                     SUCCESS                       *
               *           SCF CONVERGED AFTER  16 CYCLES          *
               *****************************************************

Old exchange energy                            =    -47.883226701 Eh
New exchange energy                            =    -47.882566438 Eh
Exchange energy change after final integration =      0.000660263 Eh
Total energy after final integration           =  -1186.467598404 Eh
Final COS-X integration done in                =     1.548 sec

----------------
TOTAL SCF ENERGY
----------------

Total Energy       :        -1186.46759840 Eh          -32285.42471 eV

Components:
Nuclear Repulsion  :         2176.51521806 Eh           59225.99007 eV
Electronic Energy  :        -3362.98281646 Eh          -91511.41479 eV
One Electron Energy:        -5941.11436685 Eh         -161665.94086 eV
Two Electron Energy:         2578.13155039 Eh           70154.52607 eV

Virial components:
Potential Energy   :        -2369.69425977 Eh          -64482.65904 eV
Kinetic Energy     :         1183.22666136 Eh           32197.23433 eV
Virial Ratio       :            2.00273907


DFT components:
N(Alpha)           :       91.999691729013 electrons
N(Beta)            :       91.999691729013 electrons
N(Total)           :      183.999383458026 electrons
E(X)               :     -109.386163218894 Eh       
E(C)               :       -5.974330884064 Eh       
E(XC)              :     -115.360494102958 Eh       
DFET-embed. en.    :        0.000000000000 Eh       

---------------
SCF CONVERGENCE
---------------

  Last Energy change         ...    1.0286e-09  Tolerance :   1.0000e-09
  Last MAX-Density change    ...    1.1657e-15  Tolerance :   1.0000e-08
  Last RMS-Density change    ...    2.0168e-17  Tolerance :   1.0000e-09
  Last Orbital Gradient      ...    1.2010e-07  Tolerance :   2.0000e-06
  Last Orbital Rotation      ...    5.0971e-07  Tolerance :   2.0000e-06

             **** THE GBW FILE WAS UPDATED (AB_4.0A.gbw) ****
             **** DENSITY FILE WAS UPDATED (AB_4.0A.scfp) ****
             **** ENERGY FILE WAS UPDATED (AB_4.0A.en.tmp) ****
             **** THE GBW FILE WAS UPDATED (AB_4.0A.gbw) ****
             **** DENSITY FILE WAS UPDATED (AB_4.0A.scfp) ****
----------------
ORBITAL ENERGIES
----------------

  NO   OCC          E(Eh)            E(eV) 
   0   2.0000     -19.421990      -528.4992 
   1   2.0000     -19.413996      -528.2817 
   2   2.0000     -19.392267      -527.6904 
   3   2.0000     -19.364435      -526.9331 
   4   2.0000     -19.356159      -526.7079 
   5   2.0000     -14.508108      -394.7857 
   6   2.0000     -14.507650      -394.7732 
   7   2.0000     -10.504480      -285.8414 
   8   2.0000     -10.490765      -285.4682 
   9   2.0000     -10.421393      -283.5805 
  10   2.0000     -10.410740      -283.2906 
  11   2.0000     -10.406202      -283.1672 
  12   2.0000     -10.374590      -282.3070 
  13   2.0000     -10.366584      -282.0891 
  14   2.0000     -10.366339      -282.0824 
  15   2.0000     -10.364806      -282.0407 
  16   2.0000     -10.364727      -282.0386 
  17   2.0000     -10.364554      -282.0338 
  18   2.0000     -10.364312      -282.0273 
  19   2.0000     -10.363417      -282.0029 
  20   2.0000     -10.363387      -282.0021 
  21   2.0000     -10.363113      -281.9946 
  22   2.0000     -10.361826      -281.9596 
  23   2.0000     -10.361060      -281.9388 
  24   2.0000     -10.357059      -281.8299 
  25   2.0000      -1.241950       -33.7952 
  26   2.0000      -1.228497       -33.4291 
  27   2.0000      -1.188088       -32.3295 
  28   2.0000      -1.153815       -31.3969 
  29   2.0000      -1.150881       -31.3171 
  30   2.0000      -1.033028       -28.1101 
  31   2.0000      -1.025250       -27.8985 
  32   2.0000      -0.989464       -26.9247 
  33   2.0000      -0.986518       -26.8445 
  34   2.0000      -0.913300       -24.8522 
  35   2.0000      -0.908362       -24.7178 
  36   2.0000      -0.878213       -23.8974 
  37   2.0000      -0.875185       -23.8150 
  38   2.0000      -0.859096       -23.3772 
  39   2.0000      -0.841676       -22.9032 
  40   2.0000      -0.793014       -21.5790 
  41   2.0000      -0.789890       -21.4940 
  42   2.0000      -0.744098       -20.2479 
  43   2.0000      -0.730868       -19.8879 
  44   2.0000      -0.720453       -19.6045 
  45   2.0000      -0.719227       -19.5712 
  46   2.0000      -0.695073       -18.9139 
  47   2.0000      -0.692812       -18.8524 
  48   2.0000      -0.659106       -17.9352 
  49   2.0000      -0.639585       -17.4040 
  50   2.0000      -0.637986       -17.3605 
  51   2.0000      -0.629570       -17.1315 
  52   2.0000      -0.610378       -16.6092 
  53   2.0000      -0.608493       -16.5579 
  54   2.0000      -0.598979       -16.2991 
  55   2.0000      -0.593628       -16.1534 
  56   2.0000      -0.587324       -15.9819 
  57   2.0000      -0.587212       -15.9789 
  58   2.0000      -0.582341       -15.8463 
  59   2.0000      -0.564812       -15.3693 
  60   2.0000      -0.562724       -15.3125 
  61   2.0000      -0.557932       -15.1821 
  62   2.0000      -0.550158       -14.9706 
  63   2.0000      -0.542933       -14.7740 
  64   2.0000      -0.538418       -14.6511 
  65   2.0000      -0.532101       -14.4792 
  66   2.0000      -0.530792       -14.4436 
  67   2.0000      -0.519736       -14.1427 
  68   2.0000      -0.518598       -14.1118 
  69   2.0000      -0.513451       -13.9717 
  70   2.0000      -0.504580       -13.7303 
  71   2.0000      -0.496710       -13.5162 
  72   2.0000      -0.488830       -13.3017 
  73   2.0000      -0.484636       -13.1876 
  74   2.0000      -0.478872       -13.0308 
  75   2.0000      -0.468241       -12.7415 
  76   2.0000      -0.460238       -12.5237 
  77   2.0000      -0.448011       -12.1910 
  78   2.0000      -0.445633       -12.1263 
  79   2.0000      -0.444003       -12.0819 
  80   2.0000      -0.443815       -12.0768 
  81   2.0000      -0.432020       -11.7559 
  82   2.0000      -0.430927       -11.7261 
  83   2.0000      -0.423500       -11.5240 
  84   2.0000      -0.392739       -10.6870 
  85   2.0000      -0.386561       -10.5189 
  86   2.0000      -0.357960        -9.7406 
  87   2.0000      -0.352337        -9.5876 
  88   2.0000      -0.348279        -9.4772 
  89   2.0000      -0.339781        -9.2459 
  90   2.0000      -0.339134        -9.2283 
  91   2.0000      -0.308011        -8.3814 
  92   0.0000       0.045326         1.2334 
  93   0.0000       0.052354         1.4246 
  94   0.0000       0.067901         1.8477 
  95   0.0000       0.074088         2.0160 
  96   0.0000       0.075100         2.0436 
  97   0.0000       0.083611         2.2752 
  98   0.0000       0.085642         2.3304 
  99   0.0000       0.088146         2.3986 
 100   0.0000       0.092876         2.5273 
 101   0.0000       0.100228         2.7273 
 102   0.0000       0.105966         2.8835 
 103   0.0000       0.110973         3.0197 
 104   0.0000       0.114782         3.1234 
 105   0.0000       0.124376         3.3844 
 106   0.0000       0.127993         3.4829 
 107   0.0000       0.137557         3.7431 
 108   0.0000       0.141948         3.8626 
 109   0.0000       0.152005         4.1363 
 110   0.0000       0.155787         4.2392 
 111   0.0000       0.159344         4.3360 
 112   0.0000       0.161223         4.3871 
 113   0.0000       0.170829         4.6485 
 114   0.0000       0.177185         4.8215 
 115   0.0000       0.185231         5.0404 
 116   0.0000       0.188380         5.1261 
 117   0.0000       0.193285         5.2596 
 118   0.0000       0.203229         5.5301 
 119   0.0000       0.206984         5.6323 
 120   0.0000       0.218594         5.9482 
 121   0.0000       0.220211         5.9922 
 122   0.0000       0.225337         6.1317 
 123   0.0000       0.234155         6.3717 
 124   0.0000       0.236980         6.4486 
 125   0.0000       0.237618         6.4659 
 126   0.0000       0.246993         6.7210 
 127   0.0000       0.252548         6.8722 
 128   0.0000       0.256780         6.9873 
 129   0.0000       0.263048         7.1579 
 130   0.0000       0.267160         7.2698 
 131   0.0000       0.275201         7.4886 
 132   0.0000       0.279528         7.6063 
 133   0.0000       0.280983         7.6459 
 134   0.0000       0.283533         7.7153 
 135   0.0000       0.289074         7.8661 
 136   0.0000       0.290501         7.9049 
 137   0.0000       0.296423         8.0661 
 138   0.0000       0.298347         8.1184 
 139   0.0000       0.308399         8.3920 
 140   0.0000       0.315333         8.5807 
 141   0.0000       0.317132         8.6296 
 142   0.0000       0.324885         8.8406 
 143   0.0000       0.332401         9.0451 
 144   0.0000       0.338534         9.2120 
 145   0.0000       0.342301         9.3145 
 146   0.0000       0.344202         9.3662 
 147   0.0000       0.347431         9.4541 
 148   0.0000       0.348116         9.4727 
 149   0.0000       0.355440         9.6720 
 150   0.0000       0.362727         9.8703 
 151   0.0000       0.362932         9.8759 
 152   0.0000       0.373481        10.1629 
 153   0.0000       0.376312        10.2400 
 154   0.0000       0.381000        10.3675 
 155   0.0000       0.384377        10.4594 
 156   0.0000       0.385728        10.4962 
 157   0.0000       0.394065        10.7231 
 158   0.0000       0.397181        10.8078 
 159   0.0000       0.399500        10.8710 
 160   0.0000       0.401136        10.9155 
 161   0.0000       0.407562        11.0903 
 162   0.0000       0.409876        11.1533 
 163   0.0000       0.416519        11.3341 
 164   0.0000       0.417792        11.3687 
 165   0.0000       0.422010        11.4835 
 166   0.0000       0.427937        11.6448 
 167   0.0000       0.430127        11.7044 
 168   0.0000       0.430670        11.7191 
 169   0.0000       0.441761        12.0209 
 170   0.0000       0.446556        12.1514 
 171   0.0000       0.449244        12.2246 
 172   0.0000       0.452161        12.3039 
 173   0.0000       0.460839        12.5401 
 174   0.0000       0.466100        12.6832 
 175   0.0000       0.471579        12.8323 
 176   0.0000       0.474191        12.9034 
 177   0.0000       0.478158        13.0113 
 178   0.0000       0.478495        13.0205 
 179   0.0000       0.480518        13.0756 
 180   0.0000       0.485028        13.1983 
 181   0.0000       0.490222        13.3396 
 182   0.0000       0.495707        13.4889 
 183   0.0000       0.500378        13.6160 
 184   0.0000       0.502479        13.6731 
 185   0.0000       0.504078        13.7167 
 186   0.0000       0.506252        13.7758 
 187   0.0000       0.508935        13.8488 
 188   0.0000       0.515693        14.0327 
 189   0.0000       0.519046        14.1240 
 190   0.0000       0.522265        14.2116 
 191   0.0000       0.524011        14.2591 
 192   0.0000       0.534100        14.5336 
 193   0.0000       0.539577        14.6826 
 194   0.0000       0.541233        14.7277 
 195   0.0000       0.541710        14.7407 
 196   0.0000       0.545123        14.8335 
 197   0.0000       0.550406        14.9773 
 198   0.0000       0.555113        15.1054 
 199   0.0000       0.562693        15.3117 
 200   0.0000       0.563841        15.3429 
 201   0.0000       0.566179        15.4065 
 202   0.0000       0.569307        15.4916 
 203   0.0000       0.573685        15.6108 
 204   0.0000       0.577428        15.7126 
 205   0.0000       0.579840        15.7782 
 206   0.0000       0.583347        15.8737 
 207   0.0000       0.588295        16.0083 
 208   0.0000       0.592819        16.1314 
 209   0.0000       0.593963        16.1626 
 210   0.0000       0.597805        16.2671 
 211   0.0000       0.601558        16.3692 
 212   0.0000       0.606815        16.5123 
 213   0.0000       0.610993        16.6260 
 214   0.0000       0.612131        16.6569 
 215   0.0000       0.616004        16.7623 
 216   0.0000       0.623477        16.9657 
 217   0.0000       0.628069        17.0906 
 218   0.0000       0.631488        17.1837 
 219   0.0000       0.638982        17.3876 
 220   0.0000       0.645467        17.5640 
 221   0.0000       0.649021        17.6608 
 222   0.0000       0.653416        17.7804 
 223   0.0000       0.654640        17.8137 
 224   0.0000       0.659990        17.9592 
 225   0.0000       0.662041        18.0150 
 226   0.0000       0.665055        18.0971 
 227   0.0000       0.670490        18.2450 
 228   0.0000       0.678168        18.4539 
 229   0.0000       0.686743        18.6872 
 230   0.0000       0.696721        18.9587 
 231   0.0000       0.700791        19.0695 
 232   0.0000       0.705244        19.1907 
 233   0.0000       0.710551        19.3351 
 234   0.0000       0.713738        19.4218 
 235   0.0000       0.726188        19.7606 
 236   0.0000       0.730487        19.8776 
 237   0.0000       0.733284        19.9537 
 238   0.0000       0.742135        20.1945 
 239   0.0000       0.747731        20.3468 
 240   0.0000       0.752790        20.4845 
 241   0.0000       0.758111        20.6293 
 242   0.0000       0.766829        20.8665 
 243   0.0000       0.774345        21.0710 
 244   0.0000       0.777198        21.1486 
 245   0.0000       0.784955        21.3597 
 246   0.0000       0.792046        21.5527 
 247   0.0000       0.793679        21.5971 
 248   0.0000       0.798645        21.7322 
 249   0.0000       0.802068        21.8254 
 250   0.0000       0.818921        22.2840 
 251   0.0000       0.826733        22.4965 
 252   0.0000       0.833341        22.6764 
 253   0.0000       0.838439        22.8151 
 254   0.0000       0.843923        22.9643 
 255   0.0000       0.847183        23.0530 
 256   0.0000       0.855979        23.2924 
 257   0.0000       0.872643        23.7458 
 258   0.0000       0.877522        23.8786 
 259   0.0000       0.905704        24.6455 
 260   0.0000       0.916429        24.9373 
 261   0.0000       0.926612        25.2144 
 262   0.0000       0.939450        25.5637 
 263   0.0000       0.949001        25.8236 
 264   0.0000       0.965890        26.2832 
 265   0.0000       0.983378        26.7591 
 266   0.0000       1.005261        27.3546 
 267   0.0000       1.037397        28.2290 
 268   0.0000       1.054366        28.6908 
 269   0.0000       1.193077        32.4653 
 270   0.0000       1.244214        33.8568 
 271   0.0000       1.290016        35.1031 
 272   0.0000       1.296984        35.2927 
 273   0.0000       1.298199        35.3258 
 274   0.0000       1.305799        35.5326 
 275   0.0000       1.314201        35.7612 
 276   0.0000       1.318536        35.8792 
 277   0.0000       1.324865        36.0514 
 278   0.0000       1.330006        36.1913 
 279   0.0000       1.341361        36.5003 
 280   0.0000       1.341926        36.5157 
 281   0.0000       1.345144        36.6032 
 282   0.0000       1.354270        36.8516 
 283   0.0000       1.358252        36.9599 
 284   0.0000       1.362851        37.0851 
 285   0.0000       1.372858        37.3574 
 286   0.0000       1.380394        37.5624 
 287   0.0000       1.388628        37.7865 
 288   0.0000       1.391172        37.8557 
 289   0.0000       1.393040        37.9065 
 290   0.0000       1.398564        38.0569 
 291   0.0000       1.404503        38.2185 
 292   0.0000       1.412732        38.4424 
 293   0.0000       1.416058        38.5329 
 294   0.0000       1.433826        39.0164 
 295   0.0000       1.436867        39.0992 
 296   0.0000       1.441571        39.2271 
 297   0.0000       1.454312        39.5738 
 298   0.0000       1.459028        39.7022 
 299   0.0000       1.463653        39.8280 
 300   0.0000       1.470725        40.0205 
 301   0.0000       1.474073        40.1116 
 302   0.0000       1.481189        40.3052 
 303   0.0000       1.488407        40.5016 
 304   0.0000       1.491250        40.5790 
 305   0.0000       1.497035        40.7364 
 306   0.0000       1.502246        40.8782 
 307   0.0000       1.517950        41.3055 
 308   0.0000       1.521628        41.4056 
 309   0.0000       1.534576        41.7579 
 310   0.0000       1.535560        41.7847 
 311   0.0000       1.540290        41.9134 
 312   0.0000       1.550267        42.1849 
 313   0.0000       1.553851        42.2824 
 314   0.0000       1.555441        42.3257 
 315   0.0000       1.561395        42.4877 
 316   0.0000       1.566075        42.6151 
 317   0.0000       1.568699        42.6865 
 318   0.0000       1.572505        42.7900 
 319   0.0000       1.578866        42.9631 
 320   0.0000       1.580672        43.0123 
 321   0.0000       1.586325        43.1661 
 322   0.0000       1.595831        43.4248 
 323   0.0000       1.598809        43.5058 
 324   0.0000       1.600532        43.5527 
 325   0.0000       1.604419        43.6585 
 326   0.0000       1.607793        43.7503 
 327   0.0000       1.614105        43.9220 
 328   0.0000       1.623644        44.1816 
 329   0.0000       1.628520        44.3143 
 330   0.0000       1.632563        44.4243 
 331   0.0000       1.638431        44.5840 
 332   0.0000       1.646123        44.7933 
 333   0.0000       1.651531        44.9405 
 334   0.0000       1.656226        45.0682 
 335   0.0000       1.659541        45.1584 
 336   0.0000       1.669803        45.4376 
 337   0.0000       1.673937        45.5501 
 338   0.0000       1.676867        45.6299 
 339   0.0000       1.682005        45.7697 
 340   0.0000       1.686641        45.8958 
 341   0.0000       1.694641        46.1135 
 342   0.0000       1.698034        46.2059 
 343   0.0000       1.703950        46.3668 
 344   0.0000       1.708183        46.4820 
 345   0.0000       1.719169        46.7810 
 346   0.0000       1.722481        46.8711 
 347   0.0000       1.730150        47.0798 
 348   0.0000       1.745255        47.4908 
 349   0.0000       1.748662        47.5835 
 350   0.0000       1.756157        47.7875 
 351   0.0000       1.762304        47.9547 
 352   0.0000       1.773742        48.2660 
 353   0.0000       1.779057        48.4106 
 354   0.0000       1.783586        48.5338 
 355   0.0000       1.788282        48.6616 
 356   0.0000       1.791811        48.7577 
 357   0.0000       1.794266        48.8244 
 358   0.0000       1.797325        48.9077 
 359   0.0000       1.807324        49.1798 
 360   0.0000       1.813383        49.3447 
 361   0.0000       1.828070        49.7443 
 362   0.0000       1.830059        49.7984 
 363   0.0000       1.842243        50.1300 
 364   0.0000       1.846100        50.2349 
 365   0.0000       1.848479        50.2997 
 366   0.0000       1.866115        50.7796 
 367   0.0000       1.866816        50.7986 
 368   0.0000       1.878702        51.1221 
 369   0.0000       1.884465        51.2789 
 370   0.0000       1.891005        51.4568 
 371   0.0000       1.903288        51.7911 
 372   0.0000       1.908627        51.9364 
 373   0.0000       1.912629        52.0453 
 374   0.0000       1.917913        52.1891 
 375   0.0000       1.921545        52.2879 
 376   0.0000       1.926697        52.4281 
 377   0.0000       1.940354        52.7997 
 378   0.0000       1.945277        52.9337 
 379   0.0000       1.953707        53.1631 
 380   0.0000       1.965563        53.4857 
 381   0.0000       1.969066        53.5810 
 382   0.0000       1.972319        53.6695 
 383   0.0000       1.981019        53.9063 
 384   0.0000       1.986219        54.0478 
 385   0.0000       1.993419        54.2437 
 386   0.0000       2.002176        54.4820 
 387   0.0000       2.006042        54.5872 
 388   0.0000       2.007542        54.6280 
 389   0.0000       2.013193        54.7818 
 390   0.0000       2.015587        54.8469 
 391   0.0000       2.019680        54.9583 
 392   0.0000       2.024716        55.0953 
 393   0.0000       2.039657        55.5019 
 394   0.0000       2.045651        55.6650 
 395   0.0000       2.050469        55.7961 
 396   0.0000       2.058565        56.0164 
 397   0.0000       2.065903        56.2161 
 398   0.0000       2.072592        56.3981 
 399   0.0000       2.077024        56.5187 
 400   0.0000       2.082433        56.6659 
 401   0.0000       2.087033        56.7911 
 402   0.0000       2.090089        56.8742 
 403   0.0000       2.095189        57.0130 
 404   0.0000       2.103108        57.2285 
 405   0.0000       2.106969        57.3336 
 406   0.0000       2.111126        57.4467 
 407   0.0000       2.123971        57.7962 
 408   0.0000       2.125850        57.8473 
 409   0.0000       2.136408        58.1346 
 410   0.0000       2.140462        58.2449 
 411   0.0000       2.152185        58.5639 
 412   0.0000       2.162605        58.8475 
 413   0.0000       2.180416        59.3321 
 414   0.0000       2.184362        59.4395 
 415   0.0000       2.184991        59.4566 
 416   0.0000       2.210027        60.1379 
 417   0.0000       2.216686        60.3191 
 418   0.0000       2.229282        60.6618 
 419   0.0000       2.233684        60.7816 
 420   0.0000       2.248371        61.1813 
 421   0.0000       2.271686        61.8157 
 422   0.0000       2.289002        62.2869 
 423   0.0000       2.293969        62.4221 
 424   0.0000       2.305807        62.7442 
 425   0.0000       2.311589        62.9015 
 426   0.0000       2.316869        63.0452 
 427   0.0000       2.320030        63.1312 
[...]
  46 2282200.8      4.4   0.00335  60.83150  95.84744   0.00350607386376   0.95531   0.01735   0.02734
  47 2282305.7      4.4   0.00177  27.47906  46.31312   0.00184741818494   0.96006   0.01487   0.02507
  48 2282376.3      4.4   0.00266  43.93149  70.36351   0.00277575792786   0.95882   0.01583   0.02535
  49 2282458.8      4.4   0.00006   0.25584   0.69681   0.00006284057519   0.98484   0.00407   0.01109
  50 2282533.5      4.4   0.00376  34.19438  54.46458   0.00384597473031   0.97695   0.00889   0.01416
  51 2282561.1      4.4   0.00072   2.59939   4.21555   0.00072551942317   0.99061   0.00358   0.00581
  52 2282659.5      4.4   0.00116   4.63423   6.00453   0.00116926892999   0.99090   0.00396   0.00514
  53 2282781.5      4.4   0.00415 194.07711 303.83490   0.00464638735879   0.89284   0.04177   0.06539
  54 2283324.9      4.4   0.00057  13.81656  20.61077   0.00060508351284   0.94310   0.02283   0.03406
  55 2283453.3      4.4   0.00076  19.02131  30.35617   0.00081301058437   0.93927   0.02340   0.03734
  56 2283509.7      4.4   0.00482  44.38169  72.29959   0.00494103072627   0.97639   0.00898   0.01463
  57 2283525.9      4.4   0.00122  46.13747  71.91766   0.00133635374782   0.91166   0.03452   0.05382
  58 2283727.3      4.4   0.00186  20.99359  46.73666   0.00192957219527   0.96490   0.01088   0.02422
  59 2283798.8      4.4   0.00086   2.90219   4.51993   0.00086281148989   0.99140   0.00336   0.00524
  60 2283845.3      4.4   0.00024   6.05592  10.05423   0.00025163536586   0.93598   0.02407   0.03996
  61 2283978.8      4.4   0.00280  25.70970  40.05987   0.00286810859006   0.97707   0.00896   0.01397
  62 2284091.7      4.4   0.00016   1.16356   1.85096   0.00016694472204   0.98194   0.00697   0.01109
  63 2284170.6      4.4   0.00228  78.31394 124.58335   0.00248149126769   0.91824   0.03156   0.05021
  64 2284219.4      4.4   0.00076   6.57999  10.16426   0.00077680656971   0.97844   0.00847   0.01308
  65 2284468.2      4.4   0.00030   8.75356   7.67016   0.00032097169655   0.94883   0.02727   0.02390
  66 2284554.2      4.4   0.00189  13.62173  18.40642   0.00192179929616   0.98333   0.00709   0.00958
  67 2284579.9      4.4   0.00252  54.24107  85.86050   0.00266290637526   0.94739   0.02037   0.03224
  68 2284628.5      4.4   0.00239  43.61793  68.21368   0.00249701878392   0.95521   0.01747   0.02732
  69 2284718.3      4.4   0.00039   6.36929  10.57737   0.00040880968804   0.95855   0.01558   0.02587
  70 2284877.4      4.4   0.00080   1.60939   2.21714   0.00080376715635   0.99524   0.00200   0.00276
  71 2284916.2      4.4   0.00067   9.58688  15.12807   0.00069042902797   0.96420   0.01389   0.02191
  72 2284971.3      4.4   0.00030   1.21876   3.42265   0.00030419682524   0.98474   0.00401   0.01125
  73 2285060.1      4.4   0.00177  30.70402  47.81083   0.00184908022316   0.95754   0.01661   0.02586
  74 2285492.4      4.4   0.00049   5.72345   8.96269   0.00050687828789   0.97103   0.01129   0.01768
  75 2285535.5      4.4   0.00126   3.85352   7.76467   0.00127059629371   0.99086   0.00303   0.00611
  76 2285554.0      4.4   0.00180  22.93595  37.55832   0.00185702393038   0.96742   0.01235   0.02023
  77 2285591.1      4.4   0.00037   7.26348  11.53307   0.00038551754147   0.95124   0.01884   0.02992
  78 2285650.9      4.4   0.00231  27.38286  42.93293   0.00237955087301   0.97045   0.01151   0.01804
  79 2285753.9      4.4   0.00145   2.47555   3.78668   0.00145444740525   0.99569   0.00170   0.00260
  80 2285875.5      4.4   0.00011   0.78643   1.19176   0.00010736295236   0.98157   0.00732   0.01110
  81 2285913.0      4.4   0.00299  61.31811  97.72341   0.00315020719355   0.94951   0.01946   0.03102
  82 2286207.4      4.4   0.00065  13.29372  22.51951   0.00068894534800   0.94802   0.01930   0.03269
  83 2286235.9      4.4   0.00100   3.01367   4.19814   0.00100881495169   0.99285   0.00299   0.00416
  84 2286344.9      4.4   0.00062   8.80216  16.71474   0.00064649597177   0.96053   0.01362   0.02585
  85 2286361.9      4.4   0.00870 287.67187 450.94192   0.00944301418766   0.92178   0.03046   0.04775
  86 2286621.9      4.4   0.00035   5.12265   8.25170   0.00036232342115   0.96309   0.01414   0.02277
  87 2286696.0      4.4   0.00055  15.19908  24.25821   0.00059158937971   0.93330   0.02569   0.04101
  88 2286795.5      4.4   0.01141 413.47912 646.03419   0.01247289152718   0.91505   0.03315   0.05180
  89 2286840.0      4.4   0.00058   4.04359   6.50672   0.00059073744762   0.98214   0.00684   0.01101
  90 2286869.5      4.4   0.00570  92.57774 144.70257   0.00593413989509   0.96001   0.01560   0.02438
  91 2286882.5      4.4   0.00084  17.03417  22.70549   0.00088208992852   0.95495   0.01931   0.02574
  92 2286951.9      4.4   0.00036   6.09170   9.44758   0.00037842425727   0.95894   0.01610   0.02497
  93 2287083.3      4.4   0.00046  10.86227  17.12513   0.00048326586735   0.94209   0.02248   0.03544
  94 2287121.9      4.4   0.00105  32.44768  52.69842   0.00113062725701   0.92469   0.02870   0.04661
  95 2287364.0      4.4   0.00235   2.90733   4.81729   0.00235850552887   0.99672   0.00123   0.00204
  96 2287414.5      4.4   0.00184  58.66325  92.29743   0.00199118919737   0.92419   0.02946   0.04635
  97 2287428.0      4.4   0.00028   2.22370   3.48226   0.00028373016905   0.97989   0.00784   0.01227
  98 2287584.1      4.4   0.00004   0.41733   0.79885   0.00004335592259   0.97195   0.00963   0.01843
  99 2287601.2      4.4   0.00629  87.71827 140.15324   0.00651598361947   0.96503   0.01346   0.02151
 100 2287740.3      4.4   0.00033   7.68259  12.21613   0.00034961320393   0.94308   0.02197   0.03494
 101 2287944.1      4.4   0.00063  16.03052  25.00805   0.00066760038957   0.93853   0.02401   0.03746
 102 2288059.2      4.4   0.00160  25.09308  39.49052   0.00166200492058   0.96114   0.01510   0.02376
 103 2288129.9      4.4   0.00049   2.90221   3.90198   0.00049564420903   0.98627   0.00586   0.00787
 104 2288167.5      4.4   0.00141  43.05817  66.85060   0.00151952466314   0.92767   0.02834   0.04399
 105 2288468.0      4.4   0.00243  17.59003  28.87908   0.00247424144457   0.98122   0.00711   0.01167
 106 2288603.4      4.4   0.00177  26.95978  43.54039   0.00183736550242   0.96163   0.01467   0.02370
 107 2288723.4      4.4   0.00035   5.10495   7.94529   0.00036524934030   0.96427   0.01398   0.02175
 108 2288743.0      4.4   0.00183   5.91821   9.30851   0.00184031529196   0.99173   0.00322   0.00506
 109 2288768.7      4.4   0.07126 1703.29587 2693.66884   0.07565857896820   0.94188   0.02251   0.03560
 110 2288824.1      4.4   0.00187  23.31784  37.32540   0.00192841915595   0.96855   0.01209   0.01936
 111 2288846.9      4.4   0.00569 124.46079 197.81433   0.00601453645918   0.94642   0.02069   0.03289
 112 2288937.1      4.4   0.00718 163.53520 258.84226   0.00760159355466   0.94444   0.02151   0.03405
 113 2288961.2      4.4   0.00024   9.60225   5.94460   0.00026020534511   0.94025   0.03690   0.02285
 114 2288996.5      4.4   0.00628 110.84731 173.55354   0.00656434292174   0.95667   0.01689   0.02644
 115 2289096.7      4.4   0.00233   4.53380   6.97579   0.00234187875905   0.99509   0.00194   0.00298
 116 2289321.2      4.4   0.00068   9.24335  14.57385   0.00070054324338   0.96600   0.01319   0.02080
 117 2289572.1      4.4   0.00084   7.72110  11.91320   0.00085495289162   0.97703   0.00903   0.01393
 118 2289722.5      4.4   0.00387  48.97197  77.47205   0.00399873040279   0.96838   0.01225   0.01937
 119 2289842.1      4.4   0.00093  10.82697  17.07080   0.00096086727546   0.97097   0.01127   0.01777
 120 2290068.4      4.4   0.00025   1.30853   2.49811   0.00025167161665   0.98487   0.00520   0.00993
 121 2290088.6      4.4   0.00110  13.54995  21.08337   0.00113689095570   0.96954   0.01192   0.01854
 122 2290299.9      4.4   0.00083   8.88875  14.09219   0.00085512689981   0.97313   0.01039   0.01648
 123 2290649.1      4.4   0.00002   0.40612   0.64588   0.00002309205083   0.95444   0.01759   0.02797
 124 2290710.4      4.4   0.00206   5.21164   8.36952   0.00207700334931   0.99346   0.00251   0.00403
 125 2290723.5      4.4   0.00151  18.03127  28.08246   0.00155762733615   0.97039   0.01158   0.01803
 126 2290751.1      4.4   0.00169  13.01619  20.37211   0.00172572750200   0.98065   0.00754   0.01180
 127 2290811.2      4.4   0.00087  16.12637  25.82512   0.00091438938509   0.95412   0.01764   0.02824
 128 2291039.3      4.4   0.00022   2.87936   4.12377   0.00022230270911   0.96850   0.01295   0.01855
 129 2291076.7      4.4   0.00016   2.88778   4.17242   0.00016903339175   0.95823   0.01708   0.02468
 130 2291118.1      4.4   0.00013   2.42383   7.65451   0.00014059281789   0.92832   0.01724   0.05444
 131 2291162.3      4.4   0.00044   8.23670  11.73105   0.00046269098673   0.95684   0.01780   0.02535
 132 2291214.7      4.4   0.00346  93.56379 144.02019   0.00370010144365   0.93579   0.02529   0.03892
 133 2291238.0      4.4   0.00087   0.36133   0.80631   0.00086963467804   0.99866   0.00042   0.00093
 134 2291367.6      4.4   0.00114  19.29921  30.27968   0.00118599423107   0.95820   0.01627   0.02553
 135 2291414.5      4.4   0.00016   2.43210   4.59716   0.00016477522350   0.95734   0.01476   0.02790
 136 2291417.5      4.4   0.00026   5.90752  11.84075   0.00027437325638   0.93531   0.02153   0.04316
 137 2291428.1      4.4   0.00005   1.66880   2.58269   0.00005579413156   0.92380   0.02991   0.04629
 138 2291760.0      4.4   0.00059   8.20638  12.58268   0.00061348347007   0.96611   0.01338   0.02051
 139 2291834.4      4.4   0.00051   5.26750   8.31280   0.00052613831222   0.97419   0.01001   0.01580
 140 2292023.5      4.4   0.00028   2.54339   4.09425   0.00028221644873   0.97648   0.00901   0.01451
 141 2292098.3      4.4   0.00008   0.11162   0.16544   0.00007974545118   0.99653   0.00140   0.00207
 142 2292152.9      4.4   0.00035   3.47990   5.15879   0.00035713523470   0.97581   0.00974   0.01444
 143 2292256.3      4.4   0.07191 1615.33808 2520.08268   0.07604928621966   0.94562   0.02124   0.03314
 144 2292265.9      4.4   0.00009  10.26821  16.33859   0.00011237643769   0.76324   0.09137   0.14539
 145 2292270.3      4.4   0.00068  10.31048  15.36400   0.00071028489231   0.96385   0.01452   0.02163
 146 2292443.7      4.4   0.00051  18.01748  28.02044   0.00055397611397   0.91690   0.03252   0.05058
 147 2292502.8      4.4   0.00032  15.67998  25.10979   0.00036569763582   0.88846   0.04288   0.06866
 148 2292663.6      4.4   0.00032   5.19504   8.31349   0.00033071543810   0.95915   0.01571   0.02514
 149 2292674.3      4.4   0.00014   0.54858   0.86498   0.00014490056656   0.99024   0.00379   0.00597
 150 2292721.3      4.4   0.00021   1.32495   1.55212   0.00021107069762   0.98637   0.00628   0.00735
 151 2292875.6      4.4   0.00105   4.44434   6.80436   0.00105959732021   0.98938   0.00419   0.00642
 152 2292886.0      4.4   0.00109   0.82019   1.42316   0.00108826988289   0.99794   0.00075   0.00131
 153 2293007.6      4.4   0.00037   5.30430   8.36402   0.00037901164139   0.96394   0.01400   0.02207
 154 2293048.5      4.4   0.00014   0.64700   1.24668   0.00014154049232   0.98662   0.00457   0.00881
 155 2293106.5      4.4   0.00015   0.98476   1.60896   0.00015394552057   0.98315   0.00640   0.01045
 156 2293160.8      4.4   0.00102   9.84298  15.20603   0.00104239898280   0.97597   0.00944   0.01459
 157 2293603.4      4.4   0.00071   5.48606   8.24939   0.00072508013975   0.98106   0.00757   0.01138
 158 2293682.0      4.4   0.00280  27.04697  43.06264   0.00286982709660   0.97557   0.00942   0.01501
 159 2293796.2      4.4   0.00182  51.58796  79.63280   0.00195534631498   0.93289   0.02638   0.04073
 160 2293824.0      4.4   0.00109   8.09315  12.51476   0.00111140414103   0.98146   0.00728   0.01126
 161 2293839.0      4.4   0.00034   6.96575  10.86745   0.00035971359471   0.95042   0.01936   0.03021
 162 2293843.3      4.4   0.00026   3.15103   4.26766   0.00026809154691   0.97233   0.01175   0.01592
 163 2293928.4      4.4   0.00187  28.02367  43.08179   0.00193964365192   0.96334   0.01445   0.02221
 164 2294010.5      4.4   0.00093  17.38368  27.35380   0.00097005064073   0.95388   0.01792   0.02820
 165 2294175.5      4.4   0.00006   0.85808   1.10764   0.00006355400496   0.96907   0.01350   0.01743
 166 2294275.3      4.4   0.00013   3.21163   5.15000   0.00013728184025   0.93909   0.02339   0.03751
 167 2294446.6      4.4   0.00037   4.32677   6.85054   0.00038559859233   0.97101   0.01122   0.01777
 168 2294479.8      4.4   0.00365 171.92977 272.02425   0.00409343237553   0.89154   0.04200   0.06645
 169 2294498.6      4.4   0.00107  13.04632  20.61491   0.00110043700311   0.96941   0.01186   0.01873
 170 2294537.2      4.4   0.00052   7.60459  11.99794   0.00054363268156   0.96394   0.01399   0.02207
 171 2294740.7      4.4   0.00088  13.43819  21.96170   0.00091536310810   0.96133   0.01468   0.02399
 172 2294902.1      4.4   0.00018   0.33136   0.53278   0.00018435065611   0.99531   0.00180   0.00289
 173 2295056.7      4.4   0.00000   0.62550   0.94161   0.00000451200077   0.65268   0.13863   0.20869
 174 2295128.6      4.4   0.00017   3.01994   5.01343   0.00017795438413   0.95486   0.01697   0.02817
 175 2295170.4      4.4   0.00068  13.13123  21.05077   0.00070954114312   0.95183   0.01851   0.02967
 176 2295332.3      4.4   0.00104  10.04840  15.27367   0.00106122520624   0.97614   0.00947   0.01439
 177 2295387.4      4.4   0.00085  18.16314  27.61855   0.00089757266706   0.94899   0.02024   0.03077
 178 2295411.3      4.4   0.00098  12.25136  19.27582   0.00100727686686   0.96870   0.01216   0.01914
 179 2295460.0      4.4   0.00024   4.24609   5.98145   0.00025056308473   0.95918   0.01695   0.02387
 180 2295562.2      4.4   0.00256  67.50413 105.43163   0.00273421315142   0.93675   0.02469   0.03856
 181 2295770.2      4.4   0.00040   2.55676   5.18924   0.00040948160376   0.98108   0.00624   0.01267
 182 2295913.2      4.4   0.00273  34.18639  53.03371   0.00281923364013   0.96906   0.01213   0.01881
 183 2295962.6      4.4   0.00450  21.61141  34.11463   0.00455899251671   0.98778   0.00474   0.00748
 184 2295965.0      4.4   0.00290 109.05822 170.71037   0.00317873451298   0.91199   0.03431   0.05370
 185 2296058.5      4.4   0.00049   6.35568  10.66898   0.00051110829640   0.96669   0.01244   0.02087
 186 2296295.0      4.4   0.00168  30.41876  48.59262   0.00176081055904   0.95513   0.01728   0.02760
 187 2296368.6      4.4   0.00079  28.45288  44.80796   0.00085976274383   0.91479   0.03309   0.05212
 188 2296417.7      4.4   0.00038   5.71906   8.88189   0.00039395344790   0.96294   0.01452   0.02255
 189 2296524.2      4.4   0.00003   0.44629   0.49162   0.00002830485905   0.96686   0.01577   0.01737
 190 2296798.4      4.4   0.00003   0.83347   1.43263   0.00003025971701   0.92511   0.02754   0.04734
 191 2296857.8      4.4   0.00107  11.93209  18.74356   0.00109936715262   0.97210   0.01085   0.01705
 192 2296860.8      4.4   0.00552  88.20425 137.92484   0.00574846724911   0.96066   0.01534   0.02399
 193 2296891.2      4.4   0.00053  11.84148  18.93477   0.00056078020383   0.94512   0.02112   0.03377
 194 2296923.0      4.4   0.00034  14.63481  24.56812   0.00038133621203   0.89720   0.03838   0.06443
 195 2297040.5      4.4   0.00832  54.74653  86.20093   0.00846284655027   0.98335   0.00647   0.01019
 196 2297098.0      4.4   0.00056   7.35477  11.58542   0.00057397659294   0.96700   0.01281   0.02018
 197 2297168.9      4.4   0.00081  16.85027  26.64526   0.00084943475878   0.94879   0.01984   0.03137
 198 2297190.9      4.4   0.00035  12.04372  18.50038   0.00037777400409   0.91915   0.03188   0.04897
 199 2297210.2      4.4   0.00057   5.84819   9.10654   0.00058743284665   0.97454   0.00996   0.01550



Timings within the ROCIS calculation:
          calculation preparation:        0.348 Sec.  (  0.1%)
          integral transformation:       38.916 Sec.  ( 10.8%)
          fock matrix formation:         12.808 Sec.  (  3.6%)
          ROCIS calculation:            191.403 Sec.  ( 53.2%)
          density formation/plotting:   116.452 Sec.  ( 32.4%)
          TOTAL ROCIS TIME:             359.931 Sec.  (100.0%)

          This is  5 minutes and 59.9 seconds.




-------------------------------------------------------------------------------
                          DFT DISPERSION CORRECTION                            
                                                                               
                              DFTD3 V3.1  Rev 1                                
                          USING Becke-Johnson damping                          
-------------------------------------------------------------------------------
The WB97M-D3BJ functional is recognized
Active option DFTDOPT                   ...         4   

molecular C6(AA) [au] = 22589.106759 


            DFT-D V3
 parameters
 s6 scaling factor         :     1.0000 
 a1 scaling factor         :     0.5660 
 s8 scaling factor         :     0.3908 
 a2 scaling factor         :     3.1280 
 ad hoc parameters k1-k3   :    16.0000     1.3333    -4.0000 

 Edisp/kcal,au: -51.808588435840  -0.082562232207 
 E6   /kcal   : -41.731827665 
 E8   /kcal   : -10.076760771 
 % E8         :  19.449981315 

-------------------------   ----------------
Dispersion correction           -0.082562232
-------------------------   ----------------


-------------------------   --------------------
FINAL SINGLE POINT ENERGY     -1186.550160635821
-------------------------   --------------------


                            ***************************************
                            *     ORCA property calculations      *
                            ***************************************

                                    ---------------------
                                    Active property flags
                                    ---------------------
   (+) Dipole Moment


------------------------------------------------------------------------------
                       ORCA ELECTRIC PROPERTIES CALCULATION
------------------------------------------------------------------------------

Dipole Moment Calculation                       ... on
Quadrupole Moment Calculation                   ... off
Polarizability Calculation                      ... off
GBWName                                         ... AB_4.0A.gbw
Electron density file                           ... AB_4.0A.scfp
The origin for moment calculation is the CENTER OF MASS  = (-0.495886,  3.567918 -4.242861)

-------------
DIPOLE MOMENT
-------------
                                X             Y             Z
Electronic contribution:     -1.08586       0.26021      -4.84341
Nuclear contribution   :      1.75884      -1.20973       5.02942
                        -----------------------------------------
Total Dipole Moment    :      0.67298      -0.94952       0.18601
                        -----------------------------------------
Magnitude (a.u.)       :      1.17860
Magnitude (Debye)      :      2.99576



--------------------
Rotational spectrum 
--------------------
 
Rotational constants in cm-1:     0.007814     0.004928     0.003403 
Rotational constants in MHz :   234.245671   147.745078   102.021787 

 Dipole components along the rotational axes: 
x,y,z [a.u.] :    -0.107990    -0.976910    -0.650446 
x,y,z [Debye]:    -0.274488    -2.483107    -1.653301 

 

Timings for individual modules:

Sum of individual times         ...      432.235 sec (=   7.204 min)
GTO integral calculation        ...       10.936 sec (=   0.182 min)   2.5 %
Relativistic integrals          ...        7.258 sec (=   0.121 min)   1.7 %
SCF iterations                  ...       41.872 sec (=   0.698 min)   9.7 %
                             ****ORCA TERMINATED NORMALLY****
TOTAL RUN TIME: 0 days 0 hours 7 minutes 16 seconds 193 msec
