
                                 *****************
                                 * O   R   C   A *
                                 *****************

           --- An Ab Initio, DFT and Semiempirical electronic structure package ---

                  #######################################################
                  #                        -***-                        #
                  #          Department of theory and spectroscopy      #
                  #               Directorship: Frank Neese             #
                  #        Max Planck Institute fuer Kohlenforschung    #
                  #                Kaiser Wilhelm Platz 1               #
                  #                 D-45470 Muelheim/Ruhr               #
                  #                      Germany                        #
                  #                                                     #
                  #                  All rights reserved                #
                  #                        -***-                        #
                  #######################################################


                         Program Version 4.2.1 -  RELEASE  -


 With contributions from (in alphabetic order):
   Daniel Aravena         : Magnetic Suceptibility
   Michael Atanasov       : Ab Initio Ligand Field Theory (pilot matlab implementation)
   Alexander A. Auer      : GIAO ZORA, VPT2
   Ute Becker             : Parallelization
   Giovanni Bistoni       : ED, misc. LED, open-shell LED, HFLD
   Martin Brehm           : Molecular dynamics
   Dmytro Bykov           : SCF Hessian
   Vijay G. Chilkuri      : MRCI spin determinant printing, contributions to CSF-ICE
   Dipayan Datta          : RHF DLPNO-CCSD density
   Achintya Kumar Dutta   : EOM-CC, STEOM-CC
   Dmitry Ganyushin       : Spin-Orbit,Spin-Spin,Magnetic field MRCI
   Miquel Garcia          : C-PCM Hessian, Gaussian charge scheme
   Yang Guo               : DLPNO-NEVPT2, CIM, IAO-localization
   Andreas Hansen         : Spin unrestricted coupled pair/coupled cluster methods
   Benjamin Helmich-Paris : CASSCF linear response (MC-RPA)
   Lee Huntington         : MR-EOM, pCC
   Robert Izsak           : Overlap fitted RIJCOSX, COSX-SCS-MP3, EOM
   Christian Kollmar      : KDIIS, OOCD, Brueckner-CCSD(T), CCSD density
   Simone Kossmann        : Meta GGA functionals, TD-DFT gradient, OOMP2, MP2 Hessian
   Martin Krupicka        : AUTO-CI
   Lucas Lang             : DCDCAS
   Dagmar Lenk            : GEPOL surface, SMD
   Dimitrios Liakos       : Extrapolation schemes; Compound Job, initial MDCI parallelization
   Dimitrios Manganas     : Further ROCIS development; embedding schemes
   Dimitrios Pantazis     : SARC Basis sets
   Taras Petrenko         : DFT Hessian,TD-DFT gradient, ASA, ECA, R-Raman, ABS, FL, XAS/XES, NRVS
   Peter Pinski           : DLPNO-MP2, DLPNO-MP2 Gradient
   Christoph Reimann      : Effective Core Potentials
   Marius Retegan         : Local ZFS, SOC
   Christoph Riplinger    : Optimizer, TS searches, QM/MM, DLPNO-CCSD(T), (RO)-DLPNO pert. Triples
   Tobias Risthaus        : Range-separated hybrids, TD-DFT gradient, RPA, STAB
   Michael Roemelt        : Original ROCIS implementation
   Masaaki Saitow         : Open-shell DLPNO-CCSD energy and density
   Barbara Sandhoefer     : DKH picture change effects
   Avijit Sen             : IP-ROCIS
   Kantharuban Sivalingam : CASSCF convergence, NEVPT2, FIC-MRCI
   Bernardo de Souza      : ESD, SOC TD-DFT
   Georgi Stoychev        : AutoAux, RI-MP2 NMR
   Willem Van den Heuvel  : Paramagnetic NMR
   Boris Wezisla          : Elementary symmetry handling
   Frank Wennmohs         : Technical directorship


 We gratefully acknowledge several colleagues who have allowed us to
 interface, adapt or use parts of their codes:
   Stefan Grimme, W. Hujo, H. Kruse,             : VdW corrections, initial TS optimization,
                  C. Bannwarth                     DFT functionals, gCP, sTDA/sTD-DF
   Ed Valeev, F. Pavosevic, A. Kumar             : LibInt (2-el integral package), F12 methods
   Garnet Chan, S. Sharma, J. Yang, R. Olivares  : DMRG
   Ulf Ekstrom                                   : XCFun DFT Library
   Mihaly Kallay                                 : mrcc  (arbitrary order and MRCC methods)
   Andreas Klamt, Michael Diedenhofen            : otool_cosmo (COSMO solvation model)
   Jiri Pittner, Ondrej Demel                    : Mk-CCSD
   Frank Weinhold                                : gennbo (NPA and NBO analysis)
   Christopher J. Cramer and Donald G. Truhlar   : smd solvation model
   Lars Goerigk                                  : TD-DFT with DH, B97 family of functionals
   V. Asgeirsson, H. Jonsson                     : NEB implementation
   FAccTs GmbH                                   : IRC, NEB, NEB-TS, Multilevel, MM, QM/MM, CI optimization
   S Lehtola, MJT Oliveira, MAL Marques          : LibXC Library


 Your calculation uses the libint2 library for the computation of 2-el integrals
 For citations please refer to: http://libint.valeyev.net

 Your ORCA version has been built with support for libXC version: 4.2.3
 For citations please refer to: https://tddft.org/programs/libxc/

 This ORCA versions uses:
   CBLAS   interface :  Fast vector & matrix operations
   LAPACKE interface :  Fast linear algebra routines
   SCALAPACK package :  Parallel linear algebra routines


Your calculation utilizes the atom-pairwise dispersion correction
with the Becke-Johnson damping scheme (D3BJ)
Cite in your paper:
S.Grimme, S.Ehrlich, L.Goerigk, J Comput Chem, (2011), 32, 1456–1465 
S.Grimme, J.Antony, S.Ehrlich and H.Krieg, J.Chem.Phys., 132, (2010), 154104 
   

----- Orbital basis set information -----
Your calculation utilizes the basis: ZORA-TZVP 

----- AuxJ basis set information -----
Your calculation utilizes the AutoAux generation procedure.
  G. L. Stoychev, A. A. Auer, F. Neese, J. Chem. Theory Comput. 13, 554 (2017)

----- AuxC basis set information -----
Your calculation utilizes the AutoAux generation procedure.
  G. L. Stoychev, A. A. Auer, F. Neese, J. Chem. Theory Comput. 13, 554 (2017)

----- AuxJK basis set information -----
Your calculation utilizes the AutoAux generation procedure.
  G. L. Stoychev, A. A. Auer, F. Neese, J. Chem. Theory Comput. 13, 554 (2017)

================================================================================
                                        WARNINGS
                       Please study these warnings very carefully!
================================================================================


WARNING: CIS/ROCIS methods need fully converged wavefunctions
  ===> : Setting SCFConvForced true
         You can overwrite this default with %scf ConvForced false 


INFO   : the flag for use of LIBINT has been found!

================================================================================
                                       INPUT FILE
================================================================================
NAME = AB_4.0A.inp
|  1> ! wb97m-d3bj zora-tzvp autoaux rijcosx veryTightSCF Grid4 nofinalgrid zora
|  2> ! NormalPrint
|  3> 
|  4> %maxcore 7500
|  5> %pal
|  6> nprocs 72
|  7> end
|  8> 
|  9> %rocis NRoots 200
| 10> MaxDim   10
| 11> maxcore  10000
| 12> MaxIter  50
| 13> RTol     1e-6
| 14> DoPNO    true
| 15> TcutPNO  1e-11
| 16> XASElems 6
| 17> OrbWin = 7,24,0,330
| 18> doquad true
| 19> SOC  true
| 20> DoLowerMult       True
| 21> DoHigherMult      True
| 22> DoDFTCIS true
| 23> DFTCIS_c = 0.18, 0.20, 0.40
| 24> end
| 25> 
| 26> 
| 27> * xyz 0 1
| 28> N        -1.161000    3.380000    2.222000
| 29> C        -0.029000    3.640000    1.356000
| 30> C         0.140000    5.138000    1.152000
| 31> O         1.439000    5.661000    1.295000
| 32> O        -0.871000    5.781000    0.877000
| 33> C        -0.222000    3.000000   -0.010000
| 34> C        -0.206000    1.490000   -0.011000
| 35> C        -1.411000    0.777000   -0.003000
| 36> C         1.014000    0.803000   -0.021000
| 37> C         1.029000   -0.598000   -0.023000
| 38> C        -0.176000   -1.310000   -0.014000
| 39> C        -1.397000   -0.623000   -0.005000
| 40> H         0.874000    3.237000    1.816000
| 41> H         0.578000    3.348000   -0.663000
| 42> H        -1.174000    3.337000   -0.420000
| 43> H        -2.352000    1.307000    0.004000
| 44> H         1.943000    1.352000   -0.027000
| 45> H         1.969000   -1.128000   -0.030000
| 46> H        -0.166000   -2.390000   -0.016000
| 47> H        -2.325000   -1.173000    0.001000
| 48> H        -1.265000    2.383000    2.352000
| 49> H        -1.008000    3.821000    3.118000
| 50> H         1.422000    6.609000    1.146000
| 51> N         0.111000    4.962000   -5.408000
| 52> C         0.136000    3.503000   -5.385000
| 53> C        -0.956000    3.021000   -6.338000
| 54> O        -2.077000    3.460000   -6.439000
| 55> O        -0.516000    2.005000   -7.088000
| 56> C        -0.178000    2.969000   -3.970000
| 57> C        -0.177000    1.478000   -3.961000
| 58> C        -1.382000    0.770000   -3.951000
| 59> C         1.042000    0.791000   -3.981000
| 60> C         1.067000   -0.598000   -3.975000
| 61> C        -0.150000   -1.282000   -3.930000
| 62> O        -0.063000   -2.640000   -3.916000
| 63> C        -1.380000   -0.621000   -3.932000
| 64> H        -0.805000    5.407000   -5.348000
| 65> H         1.154000    3.130000   -5.707000
| 66> H         0.579000    3.377000   -3.263000
| 67> H        -1.141000    3.381000   -3.602000
| 68> H        -2.334000    1.310000   -3.957000
| 69> H         1.982000    1.348000   -3.996000
| 70> H         2.008000   -1.146000   -3.999000
| 71> H        -2.314000   -1.180000   -3.931000
| 72> H        -0.848000   -3.063000   -3.471000
| 73> H        -1.200000    1.616000   -7.712000
| 74> H         0.540000    5.262000   -6.273000
| 75> *
| 76> 
| 77>                          ****END OF INPUT****
================================================================================

                       ****************************
                       * Single Point Calculation *
                       ****************************

---------------------------------
CARTESIAN COORDINATES (ANGSTROEM)
---------------------------------
  N     -1.161000    3.380000    2.222000
  C     -0.029000    3.640000    1.356000
  C      0.140000    5.138000    1.152000
  O      1.439000    5.661000    1.295000
  O     -0.871000    5.781000    0.877000
  C     -0.222000    3.000000   -0.010000
  C     -0.206000    1.490000   -0.011000
  C     -1.411000    0.777000   -0.003000
  C      1.014000    0.803000   -0.021000
  C      1.029000   -0.598000   -0.023000
  C     -0.176000   -1.310000   -0.014000
  C     -1.397000   -0.623000   -0.005000
  H      0.874000    3.237000    1.816000
  H      0.578000    3.348000   -0.663000
  H     -1.174000    3.337000   -0.420000
  H     -2.352000    1.307000    0.004000
  H      1.943000    1.352000   -0.027000
  H      1.969000   -1.128000   -0.030000
  H     -0.166000   -2.390000   -0.016000
  H     -2.325000   -1.173000    0.001000
  H     -1.265000    2.383000    2.352000
  H     -1.008000    3.821000    3.118000
  H      1.422000    6.609000    1.146000
  N      0.111000    4.962000   -5.408000
  C      0.136000    3.503000   -5.385000
  C     -0.956000    3.021000   -6.338000
  O     -2.077000    3.460000   -6.439000
  O     -0.516000    2.005000   -7.088000
  C     -0.178000    2.969000   -3.970000
  C     -0.177000    1.478000   -3.961000
  C     -1.382000    0.770000   -3.951000
  C      1.042000    0.791000   -3.981000
  C      1.067000   -0.598000   -3.975000
  C     -0.150000   -1.282000   -3.930000
  O     -0.063000   -2.640000   -3.916000
  C     -1.380000   -0.621000   -3.932000
  H     -0.805000    5.407000   -5.348000
  H      1.154000    3.130000   -5.707000
  H      0.579000    3.377000   -3.263000
  H     -1.141000    3.381000   -3.602000
  H     -2.334000    1.310000   -3.957000
  H      1.982000    1.348000   -3.996000
  H      2.008000   -1.146000   -3.999000
  H     -2.314000   -1.180000   -3.931000
  H     -0.848000   -3.063000   -3.471000
  H     -1.200000    1.616000   -7.712000
  H      0.540000    5.262000   -6.273000

----------------------------
CARTESIAN COORDINATES (A.U.)
----------------------------
  NO LB      ZA    FRAG     MASS         X           Y           Z
   0 N     7.0000    0    14.007   -2.193972    6.387274    4.198971
   1 C     6.0000    0    12.011   -0.054802    6.878603    2.562469
   2 C     6.0000    0    12.011    0.264562    9.709413    2.176965
   3 O     8.0000    0    15.999    2.719316   10.697740    2.447195
   4 O     8.0000    0    15.999   -1.645951   10.924507    1.657290
   5 C     6.0000    0    12.011   -0.419519    5.669178   -0.018897
   6 C     6.0000    0    12.011   -0.389284    2.815692   -0.020787
   7 C     6.0000    0    12.011   -2.666404    1.468317   -0.005669
   8 C     6.0000    0    12.011    1.916182    1.517450   -0.039684
   9 C     6.0000    0    12.011    1.944528   -1.130056   -0.043464
  10 C     6.0000    0    12.011   -0.332592   -2.475541   -0.026456
  11 C     6.0000    0    12.011   -2.639947   -1.177299   -0.009449
  12 H     1.0000    0     1.008    1.651621    6.117043    3.431743
  13 H     1.0000    0     1.008    1.092262    6.326803   -1.252888
  14 H     1.0000    0     1.008   -2.218538    6.306016   -0.793685
  15 H     1.0000    0     1.008   -4.444636    2.469872    0.007559
  16 H     1.0000    0     1.008    3.671738    2.554910   -0.051023
  17 H     1.0000    0     1.008    3.720871   -2.131611   -0.056692
  18 H     1.0000    0     1.008   -0.313695   -4.516445   -0.030236
  19 H     1.0000    0     1.008   -4.393613   -2.216649    0.001890
  20 H     1.0000    0     1.008   -2.390504    4.503217    4.444636
  21 H     1.0000    0     1.008   -1.904844    7.220644    5.892166
  22 H     1.0000    0     1.008    2.687191   12.489200    2.165626
  23 N     7.0000    0    14.007    0.209760    9.376821  -10.219639
  24 C     6.0000    0    12.011    0.257003    6.619711  -10.176175
  25 C     6.0000    0    12.011   -1.806578    5.708863  -11.977084
  26 O     8.0000    0    15.999   -3.924961    6.538452  -12.167947
  27 O     8.0000    0    15.999   -0.975099    3.788901  -13.394379
  28 C     6.0000    0    12.011   -0.336371    5.610597   -7.502213
  29 C     6.0000    0    12.011   -0.334482    2.793015   -7.485205
  30 C     6.0000    0    12.011   -2.611602    1.455089   -7.466308
  31 C     6.0000    0    12.011    1.969095    1.494773   -7.523000
  32 C     6.0000    0    12.011    2.016338   -1.130056   -7.511661
  33 C     6.0000    0    12.011   -0.283459   -2.422629   -7.426624
  34 O     8.0000    0    15.999   -0.119053   -4.988877   -7.400168
  35 C     6.0000    0    12.011   -2.607822   -1.173520   -7.430403
  36 H     1.0000    0     1.008   -1.521230   10.217749  -10.106255
  37 H     1.0000    0     1.008    2.180744    5.914843  -10.784667
  38 H     1.0000    0     1.008    1.094151    6.381605   -6.166176
  39 H     1.0000    0     1.008   -2.156178    6.389164   -6.806794
  40 H     1.0000    0     1.008   -4.410621    2.475541   -7.477646
  41 H     1.0000    0     1.008    3.745437    2.547351   -7.551346
  42 H     1.0000    0     1.008    3.794570   -2.165626   -7.557015
  43 H     1.0000    0     1.008   -4.372826   -2.229877   -7.428513
  44 H     1.0000    0     1.008   -1.602488   -5.788231   -6.559239
  45 H     1.0000    0     1.008   -2.267671    3.053797  -14.573568
  46 H     1.0000    0     1.008    1.020452    9.943739  -11.854252

--------------------------------
INTERNAL COORDINATES (ANGSTROEM)
--------------------------------
 N      0   0   0     0.000000000000     0.00000000     0.00000000
 C      1   0   0     1.448785698439     0.00000000     0.00000000
 C      2   1   0     1.521243241563   110.10114448     0.00000000
 O      3   2   1     1.407614648972   117.05022556   133.02971254
 O      3   2   1     1.229306715185   116.98139621   313.01740300
 C      2   1   3     1.520790912650   111.23661411   240.38625410
 C      6   2   1     1.510085096940   114.83838268   292.44353425
 C      7   6   2     1.400163561874   120.00497330    97.92281875
 C      7   6   2     1.400167489981   119.99105042   277.87218597
 C      9   7   6     1.401081724954   119.99772222   180.05056857
 C     10   9   7     1.399660673163   119.96287959   359.95287817
 C      8   7   6     1.400071426749   120.03880233   179.94900907
 H      2   1   3     1.090604419577   109.17809817   119.84107938
 H      6   2   1     1.089730700678   108.10031629   171.64548782
 H      6   2   1     1.089941741562   108.57875707    54.14358701
 H      8   7   6     1.080013888800   119.99881670     0.00000000
 H      9   7   6     1.079109818322   120.03546327     0.06097034
 H     10   9   7     1.079142715307   120.02890285   180.04328364
 H     11  10   9     1.080048147075   120.04559347   179.97112658
 H     12   8   7     1.078758545737   120.08004065   180.00980655
 H      1   2   3     1.010804135330   109.52857315   180.02945076
 H      1   2   3     1.010299955459   109.47858171   299.97462776
 H      4   3   2     0.959788518373   109.56465473   180.09342224
 N     14   6   2     5.033697448198   126.80897701   225.07719221
 C     24  14   6     1.459395422769    70.30594821   278.71488363
 C     25  24  14     1.527415136759   107.06162666   136.43330939
 O     26  25  24     1.208123751939   126.93214213   316.77019493
 O     26  25  24     1.337294283245   110.75917532   136.86541163
 C     25  24  14     1.544660804190   110.88957769    18.25599094
 C     29  25  24     1.491027498070   110.55422417   178.88500017
 C     30  29  25     1.397636934257   120.39941338   257.17422522
 C     30  29  25     1.399403444329   119.43345498    76.31117143
 C     32  30  29     1.389237920588   120.42787141   180.09121027
 C     33  32  30     1.396771276910   118.29925086   359.13144361
 O     34  33  32     1.360855980624   115.67731631   180.47965820
 C     31  30  29     1.391131194388   120.35656436   180.50634926
 H     24  14   6     1.020137735798    99.65583538    33.83531512
 H     25  24  14     1.130989389871   109.91601843   257.34556084
 H     29  25  24     1.113266365251   108.47161050   301.09901388
 H     29  25  24     1.110196829396   110.59031544    54.64763915
 H     31  30  29     1.094504454080   119.99654336     0.43888147
 H     32  30  29     1.092736930830   119.95289973     0.42333481
 H     33  32  30     1.089202001467   121.23076552   179.46835982
 H     36  31  30     1.088502641246   120.81581999   180.42229923
 H     35  34  33     0.996583664325   112.19720479   153.20413588
 H     28  26  25     1.004267394671   114.75016605   177.62869189
 H     24  14   6     1.011071708634   149.56842057   187.23953877

---------------------------
INTERNAL COORDINATES (A.U.)
---------------------------
 N      0   0   0     0.000000000000     0.00000000     0.00000000
 C      1   0   0     2.737808196791     0.00000000     0.00000000
 C      2   1   0     2.874733109632   110.10114448     0.00000000
 O      3   2   1     2.660006188652   117.05022556   133.02971254
 O      3   2   1     2.323053026291   116.98139621   313.01740300
 C      2   1   3     2.873878331865   111.23661411   240.38625410
 C      6   2   1     2.853647272132   114.83838268   292.44353425
 C      7   6   2     2.645925674638   120.00497330    97.92281875
 C      7   6   2     2.645933097684   119.99105042   277.87218597
 C      9   7   6     2.647660751405   119.99772222   180.05056857
 C     10   9   7     2.644975352699   119.96287959   359.95287817
 C      8   7   6     2.645751564485   120.03880233   179.94900907
 H      2   1   3     2.060943673444   109.17809817   119.84107938
 H      6   2   1     2.059292584007   108.10031629   171.64548782
 H      6   2   1     2.059691393482   108.57875707    54.14358701
 H      8   7   6     2.040930470662   119.99881670     0.00000000
 H      9   7   6     2.039222025055   120.03546327     0.06097034
 H     10   9   7     2.039284191346   120.02890285   180.04328364
 H     11  10   9     2.040995209421   120.04559347   179.97112658
 H     12   8   7     2.038558216070   120.08004065   180.00980655
 H      1   2   3     1.910142990809   109.52857315   180.02945076
 H      1   2   3     1.909190228930   109.47858171   299.97462776
 H      4   3   2     1.813737446206   109.56465473   180.09342224
 N     14   6   2     9.512309618113   126.80897701   225.07719221
 C     24  14   6     2.757857670132    70.30594821   278.71488363
 C     25  24  14     2.886396301280   107.06162666   136.43330939
 O     26  25  24     2.283023027051   126.93214213   316.77019493
 O     26  25  24     2.527119955792   110.75917532   136.86541163
 C     25  24  14     2.918985889721   110.88957769    18.25599094
 C     29  25  24     2.817633629498   110.55422417   178.88500017
 C     30  29  25     2.641151040400   120.39941338   257.17422522
 C     30  29  25     2.644489260648   119.43345498    76.31117143
 C     32  30  29     2.625279204770   120.42787141   180.09121027
 C     33  32  30     2.639515185087   118.29925086   359.13144361
 O     34  33  32     2.571645111088   115.67731631   180.47965820
 C     31  30  29     2.628856973749   120.35656436   180.50634926
 H     24  14   6     1.927780939538    99.65583538    33.83531512
 H     25  24  14     2.137260207226   109.91601843   257.34556084
 H     29  25  24     2.103768544431   108.47161050   301.09901388
 H     29  25  24     2.097967962305   110.59031544    54.64763915
 H     31  30  29     2.068313670567   119.99654336     0.43888147
 H     32  30  29     2.064973535691   119.95289973     0.42333481
 H     33  32  30     2.058293487292   121.23076552   179.46835982
 H     36  31  30     2.056971888005   120.81581999   180.42229923
 H     35  34  33     1.883270195114   112.19720479   153.20413588
 H     28  26  25     1.897790341155   114.75016605   177.62869189
 H     24  14   6     1.910648631074   149.56842057   187.23953877

---------------------
BASIS SET INFORMATION
---------------------
There are 4 groups of distinct atoms

 Group   1 Type N   : 11s6p1d contracted to 6s3p1d pattern {611111/411/1}
 Group   2 Type C   : 11s6p1d contracted to 6s3p1d pattern {611111/411/1}
 Group   3 Type O   : 11s6p1d contracted to 6s3p1d pattern {611111/411/1}
 Group   4 Type H   : 5s1p contracted to 3s1p pattern {311/1}

Atom   0N    basis set group =>   1
Atom   1C    basis set group =>   2
Atom   2C    basis set group =>   2
Atom   3O    basis set group =>   3
Atom   4O    basis set group =>   3
Atom   5C    basis set group =>   2
Atom   6C    basis set group =>   2
Atom   7C    basis set group =>   2
Atom   8C    basis set group =>   2
Atom   9C    basis set group =>   2
Atom  10C    basis set group =>   2
Atom  11C    basis set group =>   2
Atom  12H    basis set group =>   4
Atom  13H    basis set group =>   4
Atom  14H    basis set group =>   4
Atom  15H    basis set group =>   4
Atom  16H    basis set group =>   4
Atom  17H    basis set group =>   4
Atom  18H    basis set group =>   4
Atom  19H    basis set group =>   4
Atom  20H    basis set group =>   4
Atom  21H    basis set group =>   4
Atom  22H    basis set group =>   4
Atom  23N    basis set group =>   1
Atom  24C    basis set group =>   2
Atom  25C    basis set group =>   2
Atom  26O    basis set group =>   3
Atom  27O    basis set group =>   3
Atom  28C    basis set group =>   2
Atom  29C    basis set group =>   2
Atom  30C    basis set group =>   2
Atom  31C    basis set group =>   2
Atom  32C    basis set group =>   2
Atom  33C    basis set group =>   2
Atom  34O    basis set group =>   3
Atom  35C    basis set group =>   2
Atom  36H    basis set group =>   4
Atom  37H    basis set group =>   4
Atom  38H    basis set group =>   4
Atom  39H    basis set group =>   4
Atom  40H    basis set group =>   4
Atom  41H    basis set group =>   4
Atom  42H    basis set group =>   4
Atom  43H    basis set group =>   4
Atom  44H    basis set group =>   4
Atom  45H    basis set group =>   4
Atom  46H    basis set group =>   4
---------------------------------
AUXILIARY/J BASIS SET INFORMATION
---------------------------------
There are 4 groups of distinct atoms

 Group   1 Type N   : 16s13p12d3f contracted to 16s13p12d3f pattern {1111111111111111/1111111111111/111111111111/111}
 Group   2 Type C   : 16s13p12d2f contracted to 16s13p12d2f pattern {1111111111111111/1111111111111/111111111111/11}
 Group   3 Type O   : 16s13p12d3f contracted to 16s13p12d3f pattern {1111111111111111/1111111111111/111111111111/111}
 Group   4 Type H   : 11s3p1d contracted to 11s3p1d pattern {11111111111/111/1}

Atom   0N    basis set group =>   1
Atom   1C    basis set group =>   2
Atom   2C    basis set group =>   2
Atom   3O    basis set group =>   3
Atom   4O    basis set group =>   3
Atom   5C    basis set group =>   2
Atom   6C    basis set group =>   2
Atom   7C    basis set group =>   2
Atom   8C    basis set group =>   2
Atom   9C    basis set group =>   2
Atom  10C    basis set group =>   2
Atom  11C    basis set group =>   2
Atom  12H    basis set group =>   4
Atom  13H    basis set group =>   4
Atom  14H    basis set group =>   4
Atom  15H    basis set group =>   4
Atom  16H    basis set group =>   4
Atom  17H    basis set group =>   4
Atom  18H    basis set group =>   4
Atom  19H    basis set group =>   4
Atom  20H    basis set group =>   4
Atom  21H    basis set group =>   4
Atom  22H    basis set group =>   4
Atom  23N    basis set group =>   1
Atom  24C    basis set group =>   2
Atom  25C    basis set group =>   2
Atom  26O    basis set group =>   3
Atom  27O    basis set group =>   3
Atom  28C    basis set group =>   2
Atom  29C    basis set group =>   2
Atom  30C    basis set group =>   2
Atom  31C    basis set group =>   2
Atom  32C    basis set group =>   2
Atom  33C    basis set group =>   2
Atom  34O    basis set group =>   3
Atom  35C    basis set group =>   2
Atom  36H    basis set group =>   4
Atom  37H    basis set group =>   4
Atom  38H    basis set group =>   4
Atom  39H    basis set group =>   4
Atom  40H    basis set group =>   4
Atom  41H    basis set group =>   4
Atom  42H    basis set group =>   4
Atom  43H    basis set group =>   4
Atom  44H    basis set group =>   4
Atom  45H    basis set group =>   4
Atom  46H    basis set group =>   4
---------------------------------
AUXILIARY/C BASIS SET INFORMATION
---------------------------------
There are 4 groups of distinct atoms

 Group   1 Type N   : 16s13p12d3f contracted to 16s13p12d3f pattern {1111111111111111/1111111111111/111111111111/111}
 Group   2 Type C   : 16s13p12d2f contracted to 16s13p12d2f pattern {1111111111111111/1111111111111/111111111111/11}
 Group   3 Type O   : 16s13p12d3f contracted to 16s13p12d3f pattern {1111111111111111/1111111111111/111111111111/111}
 Group   4 Type H   : 11s3p1d contracted to 11s3p1d pattern {11111111111/111/1}

Atom   0N    basis set group =>   1
Atom   1C    basis set group =>   2
Atom   2C    basis set group =>   2
Atom   3O    basis set group =>   3
Atom   4O    basis set group =>   3
Atom   5C    basis set group =>   2
Atom   6C    basis set group =>   2
Atom   7C    basis set group =>   2
Atom   8C    basis set group =>   2
Atom   9C    basis set group =>   2
Atom  10C    basis set group =>   2
Atom  11C    basis set group =>   2
Atom  12H    basis set group =>   4
Atom  13H    basis set group =>   4
Atom  14H    basis set group =>   4
Atom  15H    basis set group =>   4
Atom  16H    basis set group =>   4
Atom  17H    basis set group =>   4
Atom  18H    basis set group =>   4
Atom  19H    basis set group =>   4
Atom  20H    basis set group =>   4
Atom  21H    basis set group =>   4
Atom  22H    basis set group =>   4
Atom  23N    basis set group =>   1
Atom  24C    basis set group =>   2
Atom  25C    basis set group =>   2
Atom  26O    basis set group =>   3
Atom  27O    basis set group =>   3
Atom  28C    basis set group =>   2
Atom  29C    basis set group =>   2
Atom  30C    basis set group =>   2
Atom  31C    basis set group =>   2
Atom  32C    basis set group =>   2
Atom  33C    basis set group =>   2
Atom  34O    basis set group =>   3
Atom  35C    basis set group =>   2
Atom  36H    basis set group =>   4
Atom  37H    basis set group =>   4
Atom  38H    basis set group =>   4
Atom  39H    basis set group =>   4
Atom  40H    basis set group =>   4
Atom  41H    basis set group =>   4
Atom  42H    basis set group =>   4
Atom  43H    basis set group =>   4
Atom  44H    basis set group =>   4
Atom  45H    basis set group =>   4
Atom  46H    basis set group =>   4
----------------------------------
AUXILIARY/JK BASIS SET INFORMATION
----------------------------------
There are 4 groups of distinct atoms

 Group   1 Type N   : 16s13p12d3f contracted to 16s13p12d3f pattern {1111111111111111/1111111111111/111111111111/111}
 Group   2 Type C   : 16s13p12d2f contracted to 16s13p12d2f pattern {1111111111111111/1111111111111/111111111111/11}
 Group   3 Type O   : 16s13p12d3f contracted to 16s13p12d3f pattern {1111111111111111/1111111111111/111111111111/111}
 Group   4 Type H   : 11s3p1d contracted to 11s3p1d pattern {11111111111/111/1}

Atom   0N    basis set group =>   1
Atom   1C    basis set group =>   2
Atom   2C    basis set group =>   2
Atom   3O    basis set group =>   3
Atom   4O    basis set group =>   3
Atom   5C    basis set group =>   2
Atom   6C    basis set group =>   2
Atom   7C    basis set group =>   2
Atom   8C    basis set group =>   2
Atom   9C    basis set group =>   2
Atom  10C    basis set group =>   2
Atom  11C    basis set group =>   2
Atom  12H    basis set group =>   4
Atom  13H    basis set group =>   4
Atom  14H    basis set group =>   4
Atom  15H    basis set group =>   4
Atom  16H    basis set group =>   4
Atom  17H    basis set group =>   4
Atom  18H    basis set group =>   4
Atom  19H    basis set group =>   4
Atom  20H    basis set group =>   4
Atom  21H    basis set group =>   4
Atom  22H    basis set group =>   4
Atom  23N    basis set group =>   1
Atom  24C    basis set group =>   2
Atom  25C    basis set group =>   2
Atom  26O    basis set group =>   3
Atom  27O    basis set group =>   3
Atom  28C    basis set group =>   2
Atom  29C    basis set group =>   2
Atom  30C    basis set group =>   2
Atom  31C    basis set group =>   2
Atom  32C    basis set group =>   2
Atom  33C    basis set group =>   2
Atom  34O    basis set group =>   3
Atom  35C    basis set group =>   2
Atom  36H    basis set group =>   4
Atom  37H    basis set group =>   4
Atom  38H    basis set group =>   4
Atom  39H    basis set group =>   4
Atom  40H    basis set group =>   4
Atom  41H    basis set group =>   4
Atom  42H    basis set group =>   4
Atom  43H    basis set group =>   4
Atom  44H    basis set group =>   4
Atom  45H    basis set group =>   4
Atom  46H    basis set group =>   4


           ************************************************************
           *        Program running with 72 parallel MPI-processes    *
           *            working without local directories             *
           ************************************************************
------------------------------------------------------------------------------
                           ORCA GTO INTEGRAL CALCULATION
                           -- RI-GTO INTEGRALS CHOSEN --
------------------------------------------------------------------------------

                         BASIS SET STATISTICS AND STARTUP INFO

Gaussian basis set:
 # of primitive gaussian shells          ...  582
 # of primitive gaussian functions       ... 1026
 # of contracted shells                  ...  338
 # of contracted basis functions         ...  632
 Highest angular momentum                ...    2
 Maximum contraction depth               ...    6
Auxiliary gaussian basis set:
 # of primitive gaussian shells          ... 1412
 # of primitive gaussian functions       ... 3824
 # of contracted shells                  ... 1412
 # of contracted aux-basis functions     ... 3824
 Highest angular momentum                ...    3
 Maximum contraction depth               ...    1
Ratio of auxiliary to basis functions    ...  6.05
Integral package used                  ... LIBINT
 One Electron integrals                  ... done
 Ordering auxiliary basis shells         ... done
 Integral threshhold             Thresh  ...  1.000e-12
 Primitive cut-off               TCut    ...  1.000e-14
 Pre-screening matrix                    ... done
 Shell pair data                         ... 
 Ordering of the shell pairs             ... done (   0.007 sec) 36678 of 57291 pairs
 Determination of significant pairs      ... done (   0.000 sec)
 Creation of shell pair data             ... done (   0.005 sec)
 Storage of shell pair data              ... done (   0.029 sec)
 Shell pair data done in (   0.042 sec)
 Computing two index integrals           ... done
 Cholesky decomposition of the V-matrix  ... done


Timings:
 Total evaluation time                   ...   2.629 sec (  0.044 min)
 One electron matrix time                ...   0.271 sec (  0.005 min) = 10.3%
 Schwartz matrix evaluation time         ...   0.279 sec (  0.005 min) = 10.6%
 Two index repulsion integral time       ...   0.308 sec (  0.005 min) = 11.7%
 Cholesky decomposition of V             ...   1.712 sec (  0.029 min) = 65.1%
 Three index repulsion integral time     ...   0.000 sec (  0.000 min) =  0.0%



           ************************************************************
           *        Program running with 72 parallel MPI-processes    *
           *            working without local directories             *
           ************************************************************
------------------------------------------------------------------------------
                          ORCA RELATIVISTIC HAMILTONIAN
------------------------------------------------------------------------------

Relativistic Method            ... ZORA(MP)
Treatment of potential         ... Van Wuellen
Nucleus model                  ... Point Nucleus
Speed of light used            ... 137.03598950000000


            *************************************************
            *         ZERO ORDER REGULAR APPROXIMATION      *
            *                     ZORA(MP)                  *
            *            Programmed by FN according to      *
            *                   C. van Wuellen              *
            *       J. Chem. Phys. (1998) vol 109, 392-399  *
            *************************************************

Terms included in model potential: +V(e,N)+V(C)+V(Xa)+V(VWN-V)
Basis function cutoff value   ... 1.000000e-12
Loading the fitted atomic densities (ZORA)   ... done
Calculating the cutoffs                      ... done
Number of fit functions                      ... 385
Setting up the integration grid ... done


           ************************************************************
           *        Program running with 72 parallel MPI-processes    *
           *            working without local directories             *
           ************************************************************
-------------------------------------------------------------------------------
                                 ORCA SCF
-------------------------------------------------------------------------------

------------
SCF SETTINGS
------------
Hamiltonian:
 Density Functional     Method          .... DFT(GTOs)
 Exchange Functional    Exchange        .... WB97M-V
 Correlation Functional Correlation     .... WB97M-V
 Gradients option       PostSCFGGA      .... off
 Hybrid DFT is turned on
   Fraction HF Exchange ScalHFX         ....  0.150000
   Scaling of DF-GGA-X  ScalDFX         ....  0.000000
   Scaling of DF-GGA-C  ScalDFC         ....  1.000000
   Scaling of DF-LDA-C  ScalLDAC        ....  1.000000
   Perturbative correction              ....  0.000000
   Density functional embedding theory  .... OFF
 Long-range corrected/Screened/Range-Separated Hybrid DFT is turned on
   Amount of maximum screened exact exchange              ....  0.850000
   Range separation parameter mu (erf(mu*r12)/r12)        ....  0.300000
 RI-approximation to the Coulomb term is turned on
   Number of auxiliary basis functions  .... 3824
   RIJ-COSX (HFX calculated with COS-X)).... on

Relativistic Settings:
 Scalar relativistic method             .... ZORA
 Speed of light used       Velit        ....       137.035989
Orbital energies will be scaled


General Settings:
 Integral files         IntName         .... AB_4.0A
 Hartree-Fock type      HFTyp           .... RHF
 Total Charge           Charge          ....    0
 Multiplicity           Mult            ....    1
 Number of Electrons    NEL             ....  184
 Basis Dimension        Dim             ....  632
 Nuclear Repulsion      ENuc            ....   2176.5152180584 Eh

Convergence Acceleration:
 DIIS                   CNVDIIS         .... on
   Start iteration      DIISMaxIt       ....    12
   Startup error        DIISStart       ....  0.200000
   # of expansion vecs  DIISMaxEq       ....     5
   Bias factor          DIISBfac        ....   1.050
   Max. coefficient     DIISMaxC        ....  10.000
 Newton-Raphson         CNVNR           .... off
 SOSCF                  CNVSOSCF        .... on
   Start iteration      SOSCFMaxIt      ....   150
   Startup grad/error   SOSCFStart      ....  0.003300
 Level Shifting         CNVShift        .... on
   Level shift para.    LevelShift      ....    0.2500
   Turn off err/grad.   ShiftErr        ....    0.0010
 Zerner damping         CNVZerner       .... off
 Static damping         CNVDamp         .... on
   Fraction old density DampFac         ....    0.7000
   Max. Damping (<1)    DampMax         ....    0.9800
   Min. Damping (>=0)   DampMin         ....    0.0000
   Turn off err/grad.   DampErr         ....    0.1000
 Fernandez-Rico         CNVRico         .... off

SCF Procedure:
 Maximum # iterations   MaxIter         ....   125
 SCF integral mode      SCFMode         .... Direct
   Integral package                     .... LIBINT
 Reset frequency        DirectResetFreq ....    20
 Integral Threshold     Thresh          ....  1.000e-12 Eh
 Primitive CutOff       TCut            ....  1.000e-14 Eh

Convergence Tolerance:
 Convergence Check Mode ConvCheckMode   .... Total+1el-Energy
 Convergence forced     ConvForced      .... 1
 Energy Change          TolE            ....  1.000e-09 Eh
 1-El. energy change                    ....  1.000e-06 Eh
 Orbital Gradient       TolG            ....  2.000e-06
 Orbital Rotation angle TolX            ....  2.000e-06
 DIIS Error             TolErr          ....  1.000e-08


Diagonalization of the overlap matrix:
Smallest eigenvalue                        ... 5.330e-06
Time for diagonalization                   ...    1.691 sec
Threshold for overlap eigenvalues          ... 1.000e-08
Number of eigenvalues below threshold      ... 0
Time for construction of square roots      ...    0.098 sec
Total time needed                          ...    1.791 sec

-------------------
DFT GRID GENERATION
-------------------

General Integration Accuracy     IntAcc      ...  4.670
Radial Grid Type                 RadialGrid  ... Gauss-Chebyshev
Angular Grid (max. acc.)         AngularGrid ... Lebedev-302
Angular grid pruning method      GridPruning ... 3 (G Style)
Weight generation scheme         WeightScheme... Becke
Basis function cutoff            BFCut       ...    1.0000e-12
Integration weight cutoff        WCut        ...    1.0000e-14
Grids for H and He will be reduced by one unit

# of grid points (after initial pruning)     ... 229968 (   0.0 sec)
# of grid points (after weights+screening)   ... 198440 (   0.2 sec)
nearest neighbour list constructed           ...    0.0 sec
Grid point re-assignment to atoms done       ...    0.0 sec
Grid point division into batches done        ...    0.6 sec
Reduced shell lists constructed in    0.7 sec

Total number of grid points                  ...   198440
Total number of batches                      ...     3126
Average number of points per batch           ...       63
Average number of grid points per atom       ...     4222
Average number of shells per batch           ...   125.09 (37.01%)
Average number of basis functions per batch  ...   236.78 (37.46%)
Average number of large shells per batch     ...    78.82 (63.01%)
Average number of large basis fcns per batch ...   150.64 (63.62%)
Maximum spatial batch extension              ...  12.33,  7.22,  8.60 au
Average spatial batch extension              ...   0.02,  0.02,  0.02 au

Time for grid setup =    0.995 sec

------------------------------
INITIAL GUESS: MODEL POTENTIAL
------------------------------
Loading ZORA relativistic densities                ... done
Calculating cut-offs                               ... done
Setting up the integral package                    ... done
Initializing the effective Hamiltonian             ... done
Starting the Coulomb interaction                   ... done (   0.0 sec)
Reading the grid                                   ... done
Mapping shells                                     ... done
Starting the XC term evaluation                    ... done (   0.1 sec)
  promolecular density results
     # of electrons  =    183.988088954
     EX              =   -152.519482538
     EC              =     -6.147680239
     EX+EC           =   -158.667162777
Transforming the Hamiltonian                       ... done (   0.0 sec)
Diagonalizing the Hamiltonian                      ... done (   0.1 sec)
Back transforming the eigenvectors                 ... done (   0.0 sec)
Now organizing SCF variables                       ... done
                      ------------------
                      INITIAL GUESS DONE (   1.4 sec)
                      ------------------
--------------------
COSX GRID GENERATION
--------------------

General Integration Accuracy     IntAcc      ...  3.340
Radial Grid Type                 RadialGrid  ... Gauss-Chebyshev
Angular Grid (max. acc.)         AngularGrid ... Lebedev-50
Angular grid pruning method      GridPruning ... 3 (G Style)
Weight generation scheme         WeightScheme... Becke
Basis function cutoff            BFCut       ...    1.0000e-12
Integration weight cutoff        WCut        ...    1.0000e-14
Grids for H and He will be reduced by one unit

# of grid points (after initial pruning)     ...  21512 (   0.0 sec)
# of grid points (after weights+screening)   ...  19239 (   0.0 sec)
nearest neighbour list constructed           ...    0.0 sec
Grid point re-assignment to atoms done       ...    0.0 sec
Grid point division into batches done        ...    0.0 sec
Reduced shell lists constructed in    0.0 sec

Total number of grid points                  ...    19239
Total number of batches                      ...      325
Average number of points per batch           ...       59
Average number of grid points per atom       ...      409
Average number of shells per batch           ...   120.33 (35.60%)
Average number of basis functions per batch  ...   226.67 (35.86%)
Average number of large shells per batch     ...    78.33 (65.10%)
Average number of large basis fcns per batch ...   152.00 (67.06%)
Maximum spatial batch extension              ...   9.82,  4.25,  4.17 au
Average spatial batch extension              ...   0.06,  0.04,  0.04 au

Overlap Fitting                  UseSFitting ... on
Constructing numerical overlap ... done (      0.0 sec)
Inverting numerical overlap    ... done (      0.4 sec)
Obtaining analytic overlap     ... done (      0.0 sec)
Final contraction and storage  ... done (      0.0 sec)


General Integration Accuracy     IntAcc      ...  3.670
Radial Grid Type                 RadialGrid  ... Gauss-Chebyshev
Angular Grid (max. acc.)         AngularGrid ... Lebedev-50
Angular grid pruning method      GridPruning ... 3 (G Style)
Weight generation scheme         WeightScheme... Becke
Basis function cutoff            BFCut       ...    1.0000e-12
Integration weight cutoff        WCut        ...    1.0000e-14
Grids for H and He will be reduced by one unit

# of grid points (after initial pruning)     ...  27362 (   0.0 sec)
# of grid points (after weights+screening)   ...  24404 (   0.0 sec)
nearest neighbour list constructed           ...    0.0 sec
Grid point re-assignment to atoms done       ...    0.0 sec
Grid point division into batches done        ...    0.0 sec
Reduced shell lists constructed in    0.0 sec

Total number of grid points                  ...    24404
Total number of batches                      ...      403
Average number of points per batch           ...       60
Average number of grid points per atom       ...      519
Average number of shells per batch           ...   120.57 (35.67%)
Average number of basis functions per batch  ...   228.00 (36.08%)
Average number of large shells per batch     ...    78.00 (64.69%)
Average number of large basis fcns per batch ...   149.71 (65.66%)
Maximum spatial batch extension              ...  11.34,  4.09,  6.14 au
Average spatial batch extension              ...   0.05,  0.04,  0.04 au

Overlap Fitting                  UseSFitting ... on
Constructing numerical overlap ... done (      0.0 sec)
Inverting numerical overlap    ... done (      0.0 sec)
Obtaining analytic overlap     ... done (      0.0 sec)
Final contraction and storage  ... done (      0.0 sec)


General Integration Accuracy     IntAcc      ...  4.010
Radial Grid Type                 RadialGrid  ... Gauss-Chebyshev
Angular Grid (max. acc.)         AngularGrid ... Lebedev-110
Angular grid pruning method      GridPruning ... 3 (G Style)
Weight generation scheme         WeightScheme... Becke
Basis function cutoff            BFCut       ...    1.0000e-12
Integration weight cutoff        WCut        ...    1.0000e-14
Grids for H and He will be reduced by one unit

# of grid points (after initial pruning)     ...  51166 (   0.0 sec)
# of grid points (after weights+screening)   ...  45342 (   0.0 sec)
nearest neighbour list constructed           ...    0.0 sec
Grid point re-assignment to atoms done       ...    0.0 sec
Grid point division into batches done        ...    0.0 sec
Reduced shell lists constructed in    0.1 sec

Total number of grid points                  ...    45342
Total number of batches                      ...      732
Average number of points per batch           ...       61
Average number of grid points per atom       ...      965
Average number of shells per batch           ...   124.17 (36.74%)
Average number of basis functions per batch  ...   235.17 (37.21%)
Average number of large shells per batch     ...    80.25 (64.63%)
Average number of large basis fcns per batch ...   153.92 (65.45%)
Maximum spatial batch extension              ...   9.89,  4.68,  4.19 au
Average spatial batch extension              ...   0.04,  0.03,  0.03 au

Overlap Fitting                  UseSFitting ... on
Constructing numerical overlap ... done (      0.0 sec)
Inverting numerical overlap    ... done (      0.0 sec)
Obtaining analytic overlap     ... done (      0.0 sec)
Final contraction and storage  ... done (      0.0 sec)

Time for X-Grid setup             =    0.810 sec
--------------
SCF ITERATIONS
--------------
               ***  Starting incremental Fock matrix formation  ***

                         ----------------------------
                         !        ITERATION     0   !
                         ----------------------------
   Total Energy        :   -1185.657531937464 Eh
   Energy Change       :   -1185.657531937464 Eh
   MAX-DP              :       0.187493913247
   RMS-DP              :       0.001439978772
   Actual Damping      :       0.7000
   Actual Level Shift  :       0.2500 Eh
   Int. Num. El.       :   183.99961874 (UP=   91.99980937 DN=   91.99980937)
   Exchange            :  -111.19214179
   Correlation         :    -6.06638515


                         ----------------------------
                         !        ITERATION     1   !
                         ----------------------------
   Total Energy        :   -1185.997297678166 Eh
   Energy Change       :      -0.339765740701 Eh
   MAX-DP              :       0.184800204971
   RMS-DP              :       0.001207511052
   Actual Damping      :       0.7000
   Actual Level Shift  :       0.2500 Eh
   Int. Num. El.       :   183.99955823 (UP=   91.99977912 DN=   91.99977912)
   Exchange            :  -110.35885391
   Correlation         :    -6.03748981

                               ***Turning on DIIS***

                         ----------------------------
                         !        ITERATION     2   !
                         ----------------------------
   Total Energy        :   -1186.159363165305 Eh
   Energy Change       :      -0.162065487139 Eh
   MAX-DP              :       0.360320283862
   RMS-DP              :       0.002457090320
   Actual Damping      :       0.0000
   Actual Level Shift  :       0.2500 Eh
   Int. Num. El.       :   183.99950093 (UP=   91.99975046 DN=   91.99975046)
   Exchange            :  -109.81443038
   Correlation         :    -6.01395493
   DIIS-Error          :       0.065476610580


                         ----------------------------
                         !        ITERATION     3   !
                         ----------------------------
   Total Energy        :   -1186.426003750495 Eh
   Energy Change       :      -0.266640585190 Eh
   MAX-DP              :       0.097784789391
   RMS-DP              :       0.000845970079
   Actual Damping      :       0.0000
   Actual Level Shift  :       0.2500 Eh
   Int. Num. El.       :   183.99936784 (UP=   91.99968392 DN=   91.99968392)
   Exchange            :  -108.96421218
   Correlation         :    -5.96012775
   DIIS-Error          :       0.067068885012
   DIIS coefficients:
      0.41385   0.58615


                         ----------------------------
                         !        ITERATION     4   !
                         ----------------------------
   Total Energy        :   -1186.466936033590 Eh
   Energy Change       :      -0.040932283096 Eh
   MAX-DP              :       0.016217333058
   RMS-DP              :       0.000225596719
   Actual Damping      :       0.0000
   Actual Level Shift  :       0.2500 Eh
   Int. Num. El.       :   183.99938348 (UP=   91.99969174 DN=   91.99969174)
   Exchange            :  -109.36419559
   Correlation         :    -5.97420266
   DIIS-Error          :       0.014840876727
   DIIS coefficients:
      0.08180   0.08114   0.83706


                         ----------------------------
                         !        ITERATION     5   !
                         ----------------------------
   Total Energy        :   -1186.467999376922 Eh
   Energy Change       :      -0.001063343332 Eh
   MAX-DP              :       0.005167124059
   RMS-DP              :       0.000072305200
   Actual Damping      :       0.0000
   Actual Level Shift  :       0.2500 Eh
   Int. Num. El.       :   183.99938766 (UP=   91.99969383 DN=   91.99969383)
   Exchange            :  -109.38151934
   Correlation         :    -5.97519876
   DIIS-Error          :       0.008501604930
   DIIS coefficients:
      0.00575  -0.00541   0.26627   0.73338

                      *** Initiating the SOSCF procedure ***
                           *** Shutting down DIIS ***
                      *** Re-Reading the Fockian *** 
                      *** Removing any level shift *** 

                         ----------------------------
                         !        ITERATION     6   !
                         ----------------------------
   Total Energy        :   -1186.468211012141 Eh
   Energy Change       :      -0.000211635219 Eh
   MAX-DP              :       0.003783613825
   RMS-DP              :       0.000033582462
   Orbital gradient    :       0.000788581412
   Orbital Rotation    :       0.000788581412
   Actual Damping      :       0.0000
   Int. Num. El.       :   183.99938561 (UP=   91.99969280 DN=   91.99969280)
   Exchange            :  -109.38613847
   Correlation         :    -5.97473314

               *** Restarting incremental Fock matrix formation ***

                         ----------------------------
                         !        ITERATION     7   !
                         ----------------------------
   Total Energy        :   -1186.468246890767 Eh
   Energy Change       :      -0.000035878626 Eh
   MAX-DP              :       0.010058861234
   RMS-DP              :       0.000126979446
   Orbital gradient    :       0.000189861215
   Orbital Rotation    :       0.000445064996
   Actual Damping      :       0.0000
   Int. Num. El.       :   183.99938441 (UP=   91.99969220 DN=   91.99969220)
   Exchange            :  -109.38616535
   Correlation         :    -5.97450884


                         ----------------------------
                         !        ITERATION     8   !
                         ----------------------------
   Total Energy        :   -1186.468254363952 Eh
   Energy Change       :      -0.000007473185 Eh
   MAX-DP              :       0.005386026204
   RMS-DP              :       0.000069060594
   Orbital gradient    :       0.000490777717
   Orbital Rotation    :       0.000961074527
   Actual Damping      :       0.0000
   Int. Num. El.       :   183.99938376 (UP=   91.99969188 DN=   91.99969188)
   Exchange            :  -109.38559213
   Correlation         :    -5.97435818


                         ----------------------------
                         !        ITERATION     9   !
                         ----------------------------
   Total Energy        :   -1186.468258144023 Eh
   Energy Change       :      -0.000003780071 Eh
   MAX-DP              :       0.004388442113
   RMS-DP              :       0.000055445187
   Orbital gradient    :       0.000112264754
   Orbital Rotation    :       0.000157958234
   Actual Damping      :       0.0000
   Int. Num. El.       :   183.99938334 (UP=   91.99969167 DN=   91.99969167)
   Exchange            :  -109.38602925
   Correlation         :    -5.97430572


                         ----------------------------
                         !        ITERATION    10   !
                         ----------------------------
   Total Energy        :   -1186.468258563097 Eh
   Energy Change       :      -0.000000419074 Eh
   MAX-DP              :       0.001201346052
   RMS-DP              :       0.000015094098
   Orbital gradient    :       0.000029811655
   Orbital Rotation    :       0.000030957408
   Actual Damping      :       0.0000
   Int. Num. El.       :   183.99938342 (UP=   91.99969171 DN=   91.99969171)
   Exchange            :  -109.38643527
   Correlation         :    -5.97432787


                         ----------------------------
                         !        ITERATION    11   !
                         ----------------------------
   Total Energy        :   -1186.468258678765 Eh
   Energy Change       :      -0.000000115669 Eh
   MAX-DP              :       0.000817001613
   RMS-DP              :       0.000010124373
   Orbital gradient    :       0.000013399624
   Orbital Rotation    :       0.000032858329
   Actual Damping      :       0.0000
   Int. Num. El.       :   183.99938349 (UP=   91.99969174 DN=   91.99969174)
   Exchange            :  -109.38606200
   Correlation         :    -5.97433073


                         ----------------------------
                         !        ITERATION    12   !
                         ----------------------------
   Total Energy        :   -1186.468258666559 Eh
   Energy Change       :       0.000000012207 Eh
   MAX-DP              :       0.000082823299
   RMS-DP              :       0.000001033589
   Orbital gradient    :       0.000002768626
   Orbital Rotation    :       0.000010216861
   Actual Damping      :       0.0000
   Int. Num. El.       :   183.99938346 (UP=   91.99969173 DN=   91.99969173)
   Exchange            :  -109.38618017
   Correlation         :    -5.97433098


                         ----------------------------
                         !        ITERATION    13   !
                         ----------------------------
   Total Energy        :   -1186.468258662900 Eh
   Energy Change       :       0.000000003658 Eh
   MAX-DP              :       0.000088730582
   RMS-DP              :       0.000001103300
   Orbital gradient    :       0.000003078260
   Orbital Rotation    :       0.000004336477
   Actual Damping      :       0.0000
   Int. Num. El.       :   183.99938346 (UP=   91.99969173 DN=   91.99969173)
   Exchange            :  -109.38616085
   Correlation         :    -5.97433001


                         ----------------------------
                         !        ITERATION    14   !
                         ----------------------------
   Total Energy        :   -1186.468258666651 Eh
   Energy Change       :      -0.000000003751 Eh
   MAX-DP              :       0.000012351911
   RMS-DP              :       0.000000154648
   Orbital gradient    :       0.000000702405
   Orbital Rotation    :       0.000002622248
   Actual Damping      :       0.0000
   Int. Num. El.       :   183.99938346 (UP=   91.99969173 DN=   91.99969173)
   Exchange            :  -109.38615713
   Correlation         :    -5.97433054


                         ----------------------------
                         !        ITERATION    15   !
                         ----------------------------
   Total Energy        :   -1186.468258667653 Eh
   Energy Change       :      -0.000000001001 Eh
   MAX-DP              :       0.000014122915
   RMS-DP              :       0.000000186387
   Orbital gradient    :       0.000000500145
   Orbital Rotation    :       0.000001102408
   Actual Damping      :       0.0000
   Int. Num. El.       :   183.99938346 (UP=   91.99969173 DN=   91.99969173)
   Exchange            :  -109.38616736
   Correlation         :    -5.97433107

                  ***Gradient check signals convergence***
              ***Rediagonalizing the Fockian in SOSCF/NRSCF***

               *****************************************************
               *                     SUCCESS                       *
               *           SCF CONVERGED AFTER  16 CYCLES          *
               *****************************************************

Old exchange energy                            =    -47.883226701 Eh
New exchange energy                            =    -47.882566438 Eh
Exchange energy change after final integration =      0.000660263 Eh
Total energy after final integration           =  -1186.467598403 Eh
Final COS-X integration done in                =     2.449 sec

----------------
TOTAL SCF ENERGY
----------------

Total Energy       :        -1186.46759840 Eh          -32285.42471 eV

Components:
Nuclear Repulsion  :         2176.51521806 Eh           59225.99007 eV
Electronic Energy  :        -3362.98281646 Eh          -91511.41479 eV
One Electron Energy:        -5941.11436685 Eh         -161665.94086 eV
Two Electron Energy:         2578.13155039 Eh           70154.52607 eV

Virial components:
Potential Energy   :        -2369.69425977 Eh          -64482.65904 eV
Kinetic Energy     :         1183.22666136 Eh           32197.23433 eV
Virial Ratio       :            2.00273907


DFT components:
N(Alpha)           :       91.999691729013 electrons
N(Beta)            :       91.999691729013 electrons
N(Total)           :      183.999383458025 electrons
E(X)               :     -109.386163218823 Eh       
E(C)               :       -5.974330884075 Eh       
E(XC)              :     -115.360494102898 Eh       
DFET-embed. en.    :        0.000000000000 Eh       

---------------
SCF CONVERGENCE
---------------

  Last Energy change         ...    1.1501e-09  Tolerance :   1.0000e-09
  Last MAX-Density change    ...    1.6098e-15  Tolerance :   1.0000e-08
  Last RMS-Density change    ...    1.8013e-17  Tolerance :   1.0000e-09
  Last Orbital Gradient      ...    1.2009e-07  Tolerance :   2.0000e-06
  Last Orbital Rotation      ...    5.0972e-07  Tolerance :   2.0000e-06

             **** THE GBW FILE WAS UPDATED (AB_4.0A.gbw) ****
             **** DENSITY FILE WAS UPDATED (AB_4.0A.scfp) ****
             **** ENERGY FILE WAS UPDATED (AB_4.0A.en.tmp) ****
             **** THE GBW FILE WAS UPDATED (AB_4.0A.gbw) ****
             **** DENSITY FILE WAS UPDATED (AB_4.0A.scfp) ****
----------------
ORBITAL ENERGIES
----------------

  NO   OCC          E(Eh)            E(eV) 
   0   2.0000     -19.421990      -528.4992 
   1   2.0000     -19.413996      -528.2817 
   2   2.0000     -19.392267      -527.6904 
   3   2.0000     -19.364435      -526.9331 
   4   2.0000     -19.356159      -526.7079 
   5   2.0000     -14.508108      -394.7857 
   6   2.0000     -14.507650      -394.7732 
   7   2.0000     -10.504480      -285.8414 
   8   2.0000     -10.490765      -285.4682 
   9   2.0000     -10.421393      -283.5805 
  10   2.0000     -10.410740      -283.2906 
  11   2.0000     -10.406202      -283.1672 
  12   2.0000     -10.374590      -282.3070 
  13   2.0000     -10.366584      -282.0891 
  14   2.0000     -10.366339      -282.0824 
  15   2.0000     -10.364806      -282.0407 
  16   2.0000     -10.364727      -282.0386 
  17   2.0000     -10.364554      -282.0338 
  18   2.0000     -10.364312      -282.0273 
  19   2.0000     -10.363417      -282.0029 
  20   2.0000     -10.363387      -282.0021 
  21   2.0000     -10.363113      -281.9946 
  22   2.0000     -10.361826      -281.9596 
  23   2.0000     -10.361060      -281.9388 
  24   2.0000     -10.357059      -281.8299 
  25   2.0000      -1.241950       -33.7952 
  26   2.0000      -1.228497       -33.4291 
  27   2.0000      -1.188088       -32.3295 
  28   2.0000      -1.153815       -31.3969 
  29   2.0000      -1.150881       -31.3171 
  30   2.0000      -1.033028       -28.1101 
  31   2.0000      -1.025250       -27.8985 
  32   2.0000      -0.989464       -26.9247 
  33   2.0000      -0.986518       -26.8445 
  34   2.0000      -0.913300       -24.8522 
  35   2.0000      -0.908362       -24.7178 
  36   2.0000      -0.878213       -23.8974 
  37   2.0000      -0.875185       -23.8150 
  38   2.0000      -0.859096       -23.3772 
  39   2.0000      -0.841676       -22.9032 
  40   2.0000      -0.793014       -21.5790 
  41   2.0000      -0.789890       -21.4940 
  42   2.0000      -0.744098       -20.2479 
  43   2.0000      -0.730868       -19.8879 
  44   2.0000      -0.720453       -19.6045 
  45   2.0000      -0.719227       -19.5712 
  46   2.0000      -0.695073       -18.9139 
  47   2.0000      -0.692812       -18.8524 
  48   2.0000      -0.659106       -17.9352 
  49   2.0000      -0.639585       -17.4040 
  50   2.0000      -0.637986       -17.3605 
  51   2.0000      -0.629570       -17.1315 
  52   2.0000      -0.610378       -16.6092 
  53   2.0000      -0.608493       -16.5579 
  54   2.0000      -0.598979       -16.2991 
  55   2.0000      -0.593628       -16.1534 
  56   2.0000      -0.587324       -15.9819 
  57   2.0000      -0.587212       -15.9789 
  58   2.0000      -0.582341       -15.8463 
  59   2.0000      -0.564812       -15.3693 
  60   2.0000      -0.562724       -15.3125 
  61   2.0000      -0.557932       -15.1821 
  62   2.0000      -0.550158       -14.9706 
  63   2.0000      -0.542933       -14.7740 
  64   2.0000      -0.538418       -14.6511 
  65   2.0000      -0.532101       -14.4792 
  66   2.0000      -0.530792       -14.4436 
  67   2.0000      -0.519736       -14.1427 
  68   2.0000      -0.518598       -14.1118 
  69   2.0000      -0.513451       -13.9717 
  70   2.0000      -0.504580       -13.7303 
  71   2.0000      -0.496710       -13.5162 
  72   2.0000      -0.488830       -13.3017 
  73   2.0000      -0.484636       -13.1876 
  74   2.0000      -0.478872       -13.0308 
  75   2.0000      -0.468241       -12.7415 
  76   2.0000      -0.460238       -12.5237 
  77   2.0000      -0.448011       -12.1910 
  78   2.0000      -0.445633       -12.1263 
  79   2.0000      -0.444003       -12.0819 
  80   2.0000      -0.443815       -12.0768 
  81   2.0000      -0.432020       -11.7559 
  82   2.0000      -0.430927       -11.7261 
  83   2.0000      -0.423500       -11.5240 
  84   2.0000      -0.392739       -10.6870 
  85   2.0000      -0.386561       -10.5189 
  86   2.0000      -0.357960        -9.7406 
  87   2.0000      -0.352337        -9.5876 
  88   2.0000      -0.348279        -9.4772 
  89   2.0000      -0.339781        -9.2459 
  90   2.0000      -0.339134        -9.2283 
  91   2.0000      -0.308011        -8.3814 
  92   0.0000       0.045326         1.2334 
  93   0.0000       0.052354         1.4246 
  94   0.0000       0.067901         1.8477 
  95   0.0000       0.074088         2.0160 
  96   0.0000       0.075100         2.0436 
  97   0.0000       0.083611         2.2752 
  98   0.0000       0.085642         2.3304 
  99   0.0000       0.088146         2.3986 
 100   0.0000       0.092876         2.5273 
 101   0.0000       0.100228         2.7273 
 102   0.0000       0.105966         2.8835 
 103   0.0000       0.110973         3.0197 
 104   0.0000       0.114782         3.1234 
 105   0.0000       0.124376         3.3844 
 106   0.0000       0.127993         3.4829 
 107   0.0000       0.137557         3.7431 
 108   0.0000       0.141948         3.8626 
 109   0.0000       0.152005         4.1363 
 110   0.0000       0.155787         4.2392 
 111   0.0000       0.159344         4.3360 
 112   0.0000       0.161223         4.3871 
 113   0.0000       0.170829         4.6485 
 114   0.0000       0.177185         4.8215 
 115   0.0000       0.185231         5.0404 
 116   0.0000       0.188380         5.1261 
 117   0.0000       0.193285         5.2596 
 118   0.0000       0.203229         5.5301 
 119   0.0000       0.206984         5.6323 
 120   0.0000       0.218594         5.9482 
 121   0.0000       0.220211         5.9922 
 122   0.0000       0.225337         6.1317 
 123   0.0000       0.234155         6.3717 
 124   0.0000       0.236980         6.4486 
 125   0.0000       0.237618         6.4659 
 126   0.0000       0.246993         6.7210 
 127   0.0000       0.252548         6.8722 
 128   0.0000       0.256780         6.9873 
 129   0.0000       0.263048         7.1579 
 130   0.0000       0.267160         7.2698 
 131   0.0000       0.275201         7.4886 
 132   0.0000       0.279528         7.6063 
 133   0.0000       0.280983         7.6459 
 134   0.0000       0.283533         7.7153 
 135   0.0000       0.289074         7.8661 
 136   0.0000       0.290501         7.9049 
 137   0.0000       0.296423         8.0661 
 138   0.0000       0.298347         8.1184 
 139   0.0000       0.308399         8.3920 
 140   0.0000       0.315333         8.5807 
 141   0.0000       0.317132         8.6296 
 142   0.0000       0.324885         8.8406 
 143   0.0000       0.332401         9.0451 
 144   0.0000       0.338534         9.2120 
 145   0.0000       0.342301         9.3145 
 146   0.0000       0.344202         9.3662 
 147   0.0000       0.347431         9.4541 
 148   0.0000       0.348116         9.4727 
 149   0.0000       0.355440         9.6720 
 150   0.0000       0.362727         9.8703 
 151   0.0000       0.362932         9.8759 
 152   0.0000       0.373481        10.1629 
 153   0.0000       0.376312        10.2400 
 154   0.0000       0.381000        10.3675 
 155   0.0000       0.384377        10.4594 
 156   0.0000       0.385728        10.4962 
 157   0.0000       0.394065        10.7231 
 158   0.0000       0.397181        10.8078 
 159   0.0000       0.399500        10.8710 
 160   0.0000       0.401136        10.9155 
 161   0.0000       0.407562        11.0903 
 162   0.0000       0.409876        11.1533 
 163   0.0000       0.416519        11.3341 
 164   0.0000       0.417792        11.3687 
 165   0.0000       0.422011        11.4835 
 166   0.0000       0.427937        11.6448 
 167   0.0000       0.430127        11.7044 
 168   0.0000       0.430670        11.7191 
 169   0.0000       0.441761        12.0209 
 170   0.0000       0.446556        12.1514 
 171   0.0000       0.449244        12.2246 
 172   0.0000       0.452161        12.3039 
 173   0.0000       0.460839        12.5401 
 174   0.0000       0.466100        12.6832 
 175   0.0000       0.471579        12.8323 
 176   0.0000       0.474191        12.9034 
 177   0.0000       0.478158        13.0113 
 178   0.0000       0.478495        13.0205 
 179   0.0000       0.480518        13.0756 
 180   0.0000       0.485028        13.1983 
 181   0.0000       0.490222        13.3396 
 182   0.0000       0.495707        13.4889 
 183   0.0000       0.500378        13.6160 
 184   0.0000       0.502479        13.6731 
 185   0.0000       0.504078        13.7167 
 186   0.0000       0.506252        13.7758 
 187   0.0000       0.508935        13.8488 
 188   0.0000       0.515693        14.0327 
 189   0.0000       0.519046        14.1240 
 190   0.0000       0.522265        14.2116 
 191   0.0000       0.524011        14.2591 
 192   0.0000       0.534100        14.5336 
 193   0.0000       0.539577        14.6826 
 194   0.0000       0.541233        14.7277 
 195   0.0000       0.541710        14.7407 
 196   0.0000       0.545123        14.8335 
 197   0.0000       0.550406        14.9773 
 198   0.0000       0.555113        15.1054 
 199   0.0000       0.562693        15.3117 
 200   0.0000       0.563841        15.3429 
 201   0.0000       0.566179        15.4065 
 202   0.0000       0.569307        15.4916 
 203   0.0000       0.573685        15.6108 
 204   0.0000       0.577428        15.7126 
 205   0.0000       0.579840        15.7782 
 206   0.0000       0.583347        15.8737 
 207   0.0000       0.588295        16.0083 
 208   0.0000       0.592819        16.1314 
 209   0.0000       0.593963        16.1626 
 210   0.0000       0.597805        16.2671 
 211   0.0000       0.601558        16.3692 
 212   0.0000       0.606815        16.5123 
 213   0.0000       0.610993        16.6260 
 214   0.0000       0.612131        16.6569 
 215   0.0000       0.616004        16.7623 
 216   0.0000       0.623477        16.9657 
 217   0.0000       0.628069        17.0906 
 218   0.0000       0.631488        17.1837 
 219   0.0000       0.638982        17.3876 
 220   0.0000       0.645467        17.5640 
 221   0.0000       0.649021        17.6608 
 222   0.0000       0.653416        17.7804 
 223   0.0000       0.654640        17.8137 
 224   0.0000       0.659990        17.9592 
 225   0.0000       0.662041        18.0150 
 226   0.0000       0.665055        18.0971 
 227   0.0000       0.670490        18.2450 
 228   0.0000       0.678168        18.4539 
 229   0.0000       0.686743        18.6872 
 230   0.0000       0.696721        18.9587 
 231   0.0000       0.700791        19.0695 
 232   0.0000       0.705244        19.1907 
 233   0.0000       0.710551        19.3351 
 234   0.0000       0.713738        19.4218 
 235   0.0000       0.726188        19.7606 
 236   0.0000       0.730487        19.8776 
 237   0.0000       0.733284        19.9537 
 238   0.0000       0.742135        20.1945 
 239   0.0000       0.747731        20.3468 
 240   0.0000       0.752790        20.4845 
 241   0.0000       0.758111        20.6293 
 242   0.0000       0.766829        20.8665 
 243   0.0000       0.774345        21.0710 
 244   0.0000       0.777198        21.1486 
 245   0.0000       0.784955        21.3597 
 246   0.0000       0.792046        21.5527 
 247   0.0000       0.793679        21.5971 
 248   0.0000       0.798645        21.7322 
 249   0.0000       0.802068        21.8254 
 250   0.0000       0.818921        22.2840 
 251   0.0000       0.826733        22.4965 
 252   0.0000       0.833341        22.6764 
 253   0.0000       0.838439        22.8151 
 254   0.0000       0.843923        22.9643 
 255   0.0000       0.847183        23.0530 
 256   0.0000       0.855979        23.2924 
 257   0.0000       0.872643        23.7458 
 258   0.0000       0.877522        23.8786 
 259   0.0000       0.905704        24.6455 
 260   0.0000       0.916429        24.9373 
 261   0.0000       0.926612        25.2144 
 262   0.0000       0.939450        25.5637 
 263   0.0000       0.949002        25.8236 
 264   0.0000       0.965890        26.2832 
 265   0.0000       0.983378        26.7591 
 266   0.0000       1.005261        27.3546 
 267   0.0000       1.037397        28.2290 
 268   0.0000       1.054366        28.6908 
 269   0.0000       1.193077        32.4653 
 270   0.0000       1.244214        33.8568 
 271   0.0000       1.290016        35.1031 
 272   0.0000       1.296984        35.2927 
 273   0.0000       1.298199        35.3258 
 274   0.0000       1.305799        35.5326 
 275   0.0000       1.314201        35.7612 
 276   0.0000       1.318536        35.8792 
 277   0.0000       1.324865        36.0514 
 278   0.0000       1.330006        36.1913 
 279   0.0000       1.341361        36.5003 
 280   0.0000       1.341926        36.5157 
 281   0.0000       1.345144        36.6032 
 282   0.0000       1.354270        36.8516 
 283   0.0000       1.358252        36.9599 
 284   0.0000       1.362851        37.0851 
 285   0.0000       1.372858        37.3574 
 286   0.0000       1.380394        37.5624 
 287   0.0000       1.388628        37.7865 
 288   0.0000       1.391172        37.8557 
 289   0.0000       1.393040        37.9065 
 290   0.0000       1.398564        38.0569 
 291   0.0000       1.404503        38.2185 
 292   0.0000       1.412732        38.4424 
 293   0.0000       1.416058        38.5329 
 294   0.0000       1.433826        39.0164 
 295   0.0000       1.436867        39.0992 
 296   0.0000       1.441571        39.2271 
 297   0.0000       1.454312        39.5738 
 298   0.0000       1.459028        39.7022 
 299   0.0000       1.463653        39.8280 
 300   0.0000       1.470725        40.0205 
 301   0.0000       1.474073        40.1116 
 302   0.0000       1.481189        40.3052 
 303   0.0000       1.488407        40.5016 
 304   0.0000       1.491250        40.5790 
 305   0.0000       1.497035        40.7364 
 306   0.0000       1.502246        40.8782 
 307   0.0000       1.517950        41.3055 
 308   0.0000       1.521628        41.4056 
 309   0.0000       1.534576        41.7579 
 310   0.0000       1.535560        41.7847 
 311   0.0000       1.540290        41.9134 
 312   0.0000       1.550267        42.1849 
 313   0.0000       1.553851        42.2824 
 314   0.0000       1.555441        42.3257 
 315   0.0000       1.561395        42.4877 
 316   0.0000       1.566075        42.6151 
 317   0.0000       1.568699        42.6865 
 318   0.0000       1.572505        42.7900 
 319   0.0000       1.578866        42.9631 
 320   0.0000       1.580672        43.0123 
 321   0.0000       1.586325        43.1661 
 322   0.0000       1.595831        43.4248 
 323   0.0000       1.598809        43.5058 
 324   0.0000       1.600532        43.5527 
 325   0.0000       1.604419        43.6585 
 326   0.0000       1.607793        43.7503 
 327   0.0000       1.614105        43.9220 
 328   0.0000       1.623644        44.1816 
 329   0.0000       1.628520        44.3143 
 330   0.0000       1.632563        44.4243 
 331   0.0000       1.638431        44.5840 
 332   0.0000       1.646123        44.7933 
 333   0.0000       1.651531        44.9405 
 334   0.0000       1.656226        45.0682 
 335   0.0000       1.659541        45.1584 
 336   0.0000       1.669803        45.4376 
 337   0.0000       1.673937        45.5501 
 338   0.0000       1.676867        45.6299 
 339   0.0000       1.682005        45.7697 
 340   0.0000       1.686641        45.8958 
 341   0.0000       1.694641        46.1135 
 342   0.0000       1.698034        46.2059 
 343   0.0000       1.703950        46.3668 
 344   0.0000       1.708183        46.4820 
 345   0.0000       1.719169        46.7810 
 346   0.0000       1.722481        46.8711 
 347   0.0000       1.730150        47.0798 
 348   0.0000       1.745255        47.4908 
 349   0.0000       1.748662        47.5835 
 350   0.0000       1.756157        47.7875 
 351   0.0000       1.762304        47.9547 
 352   0.0000       1.773742        48.2660 
 353   0.0000       1.779057        48.4106 
 354   0.0000       1.783586        48.5338 
 355   0.0000       1.788282        48.6616 
 356   0.0000       1.791811        48.7577 
 357   0.0000       1.794266        48.8244 
 358   0.0000       1.797325        48.9077 
 359   0.0000       1.807324        49.1798 
 360   0.0000       1.813383        49.3447 
 361   0.0000       1.828070        49.7443 
 362   0.0000       1.830059        49.7984 
 363   0.0000       1.842243        50.1300 
 364   0.0000       1.846100        50.2349 
 365   0.0000       1.848479        50.2997 
 366   0.0000       1.866115        50.7796 
 367   0.0000       1.866816        50.7986 
 368   0.0000       1.878702        51.1221 
 369   0.0000       1.884465        51.2789 
 370   0.0000       1.891005        51.4568 
 371   0.0000       1.903288        51.7911 
 372   0.0000       1.908627        51.9364 
 373   0.0000       1.912629        52.0453 
 374   0.0000       1.917913        52.1891 
 375   0.0000       1.921545        52.2879 
 376   0.0000       1.926697        52.4281 
 377   0.0000       1.940354        52.7997 
 378   0.0000       1.945277        52.9337 
 379   0.0000       1.953707        53.1631 
 380   0.0000       1.965563        53.4857 
 381   0.0000       1.969066        53.5810 
 382   0.0000       1.972319        53.6695 
 383   0.0000       1.981019        53.9063 
 384   0.0000       1.986219        54.0478 
 385   0.0000       1.993419        54.2437 
 386   0.0000       2.002176        54.4820 
 387   0.0000       2.006042        54.5872 
 388   0.0000       2.007542        54.6280 
 389   0.0000       2.013193        54.7818 
 390   0.0000       2.015587        54.8469 
 391   0.0000       2.019680        54.9583 
 392   0.0000       2.024716        55.0953 
 393   0.0000       2.039657        55.5019 
 394   0.0000       2.045651        55.6650 
 395   0.0000       2.050469        55.7961 
 396   0.0000       2.058565        56.0164 
 397   0.0000       2.065903        56.2161 
 398   0.0000       2.072592        56.3981 
 399   0.0000       2.077024        56.5187 
 400   0.0000       2.082433        56.6659 
 401   0.0000       2.087033        56.7911 
 402   0.0000       2.090089        56.8742 
 403   0.0000       2.095189        57.0130 
 404   0.0000       2.103108        57.2285 
 405   0.0000       2.106969        57.3336 
 406   0.0000       2.111126        57.4467 
 407   0.0000       2.123971        57.7962 
 408   0.0000       2.125850        57.8473 
 409   0.0000       2.136408        58.1346 
 410   0.0000       2.140462        58.2449 
 411   0.0000       2.152185        58.5639 
 412   0.0000       2.162605        58.8475 
 413   0.0000       2.180416        59.3321 
 414   0.0000       2.184362        59.4395 
 415   0.0000       2.184991        59.4566 
 416   0.0000       2.210027        60.1379 
 417   0.0000       2.216686        60.3191 
 418   0.0000       2.229282        60.6618 
 419   0.0000       2.233684        60.7816 
 420   0.0000       2.248371        61.1813 
 421   0.0000       2.271686        61.8157 
 422   0.0000       2.289002        62.2869 
 423   0.0000       2.293969        62.4221 
 424   0.0000       2.305807        62.7442 
[...]
 0 646 2678752.6    3.7   0.00000   0.00026   0.00012   0.00000000699103   0.94550   0.03741   0.01710
 0 647 2678752.6    3.7   0.00000   0.00023   0.00017   0.00000000489038   0.91748   0.04795   0.03457
 0 648 2679533.3    3.7   0.03061 982.48234   0.06936   0.03159332511168   0.93870   0.03013   0.03117
 0 649 2681524.8    3.7   0.00000   0.00000   0.00001   0.00000000000853   0.25562   0.00222   0.74216
 0 650 2681524.8    3.7   0.00000   0.00000   0.00000   0.00000000000757   0.38571   0.01028   0.60400
 0 651 2681524.8    3.7   0.00000   0.00000   0.00001   0.00000000002890   0.57572   0.12187   0.30242
 0 652 2681524.8    3.7   0.00000   0.00855   0.00004   0.00000007641604   0.83567   0.10472   0.05961
 0 653 2683140.2    3.7   0.00000   0.00000   0.00000   0.00000000000295   0.83341   0.07006   0.09653
 0 654 2683140.2    3.7   0.00000   0.00000   0.00000   0.00000000000291   0.83490   0.06971   0.09539
 0 655 2683140.2    3.7   0.00000   0.00002   0.00003   0.00000000023167   0.76669   0.09966   0.13365
 0 656 2683140.3    3.7   0.00000   0.32594   0.00010   0.00000285289128   0.81149   0.10470   0.08381
 0 657 2684026.5    3.7   0.01086 480.70366   0.14813   0.01134250484078   0.92831   0.04108   0.03061
 0 658 2684165.1    3.7   0.00000   0.00143   0.00103   0.00000003834646   0.93591   0.03731   0.02677
 0 659 2684165.1    3.7   0.00000   0.00008   0.00013   0.00000000347774   0.93981   0.02180   0.03838
 0 660 2684165.1    3.7   0.00000   0.00075   0.00025   0.00000001369361   0.92650   0.05488   0.01862
 0 661 2687504.2    3.7   0.00000   0.01055   0.00052   0.00000016594561   0.90043   0.06259   0.03699
 0 662 2687504.3    3.7   0.00000   0.00001   0.00005   0.00000000031262   0.81219   0.03325   0.15456
 0 663 2687504.3    3.7   0.00000   0.00000   0.00003   0.00000000007312   0.55307   0.02938   0.41755
 0 664 2687508.5    3.7   0.00000   0.32719   0.01428   0.00000498927190   0.90203   0.06372   0.03425
 0 665 2687854.7    3.7   0.00175  18.38629   2.51602   0.00176974913175   0.96257   0.01013   0.02731
 0 666 2688100.7    3.7   0.00000   0.00002   0.00000   0.00000000063138   0.96450   0.02802   0.00748
 0 667 2688100.7    3.7   0.00000   0.00002   0.00004   0.00000000077268   0.92706   0.02646   0.04648
 0 668 2688100.7    3.7   0.00000   0.00153   0.00027   0.00000018553251   0.98565   0.00848   0.00588
 0 669 2688579.0    3.7   0.00000   0.00581   0.00013   0.00000012306103   0.91162   0.04560   0.04278
 0 670 2688579.0    3.7   0.00000   0.00008   0.00001   0.00000000095540   0.90482   0.08368   0.01150
 0 671 2688579.0    3.7   0.00000   0.00000   0.00003   0.00000000014294   0.76973   0.00123   0.22905
 0 672 2688588.2    3.7   0.00119  52.69995   2.92061   0.00124298594215   0.91296   0.04052   0.04652
 0 673 2689851.4    3.7   0.00382 127.35606   1.60406   0.00395113575964   0.93973   0.03131   0.02895
 0 674 2689930.3    3.7   0.00000   0.00339   0.00191   0.00000006672688   0.92070   0.05075   0.02855
 0 675 2689930.3    3.7   0.00000   0.00002   0.00002   0.00000000057842   0.93226   0.03639   0.03135
 0 676 2689930.3    3.7   0.00000   0.00015   0.00007   0.00000000289163   0.92068   0.05348   0.02583
 0 677 2690940.8    3.7   0.00404 184.48400   0.02241   0.00422395888672   0.92861   0.04241   0.02898
 0 678 2691023.5    3.7   0.00000   0.00016   0.00048   0.00000000774151   0.91702   0.02045   0.06253
 0 679 2691023.5    3.7   0.00000   0.00001   0.00010   0.00000000073790   0.84187   0.01744   0.14069
 0 680 2691023.5    3.7   0.00000   0.00002   0.00003   0.00000000070998   0.93286   0.02797   0.03917
 0 681 2691321.0    3.7   0.00444 163.79388   3.24738   0.00460822695902   0.93659   0.03455   0.02887
 0 682 2691335.7    3.7   0.00000   0.00002   0.00016   0.00000000142851   0.86915   0.01535   0.11550
 0 683 2691335.7    3.7   0.00000   0.00001   0.00002   0.00000000023037   0.90706   0.02749   0.06545
 0 684 2691335.7    3.7   0.00002   0.69879   0.00971   0.00001977074602   0.93685   0.03441   0.02874
 0 685 2691494.1    3.7   0.00023  12.20682   0.06658   0.00023834263359   0.91706   0.04953   0.03341
 0 686 2691727.8    3.7   0.00000   0.00774   0.00014   0.00000024164578   0.93411   0.03081   0.03508
 0 687 2691727.8    3.7   0.00000   0.00007   0.00054   0.00000000208929   0.70863   0.03482   0.25655
 0 688 2691727.8    3.7   0.00000   0.00000   0.00001   0.00000000018457   0.92309   0.01051   0.06640
 0 689 2692224.5    3.7   0.00014   1.21050   5.98845   0.00015142679419   0.92051   0.00775   0.07174
 0 690 2692285.5    3.7   0.00000   0.05770   0.00084   0.00000165404343   0.93466   0.03384   0.03150
 0 691 2692285.6    3.7   0.00000   0.00001   0.00010   0.00000000046991   0.77006   0.01787   0.21206
 0 692 2692285.6    3.7   0.00000   0.00000   0.00012   0.00000000026652   0.56097   0.00488   0.43415
 0 693 2692509.5    3.7   0.00079  22.40899   0.07080   0.00081527291788   0.93523   0.02644   0.03833
 0 694 2692679.5    3.7   0.00000   0.00189   0.00044   0.00000000868737   0.73248   0.21718   0.05034
 0 695 2692679.5    3.7   0.00000   0.00001   0.00014   0.00000000039141   0.63020   0.02114   0.34866
 0 696 2692679.5    3.7   0.00000   0.00000   0.00002   0.00000000027189   0.92375   0.00640   0.06985
 0 697 2692779.6    3.7   0.00000   0.00001   0.00001   0.00000000020526   0.86750   0.06955   0.06294
 0 698 2692779.6    3.7   0.00000   0.00000   0.00000   0.00000000000235   0.43894   0.02012   0.54094
 0 699 2692779.6    3.7   0.00000   0.00000   0.00001   0.00000000001286   0.30176   0.00351   0.69472
 0 700 2692780.4    3.7   0.00001   0.83593   0.04919   0.00001083013580   0.90677   0.07619   0.01703
 0 701 2692815.1    3.7   0.00000   0.00013   0.00011   0.00000000296339   0.91880   0.04528   0.03592
 0 702 2692815.1    3.7   0.00000   0.00000   0.00000   0.00000000001769   0.82549   0.02228   0.15223
 0 703 2692815.1    3.7   0.00000   0.00000   0.00023   0.00000000032661   0.30111   0.00000   0.69889
 0 704 2692824.1    3.7   0.00022   2.19026   0.03038   0.00021842296973   0.97937   0.00993   0.01070
 0 705 2692998.4    3.7   0.00099  44.25814   1.12076   0.00103237479586   0.92564   0.04150   0.03286
 0 706 2693156.5    3.7   0.00000   0.00423   0.00003   0.00000009624380   0.92273   0.04227   0.03500
 0 707 2693156.5    3.7   0.00000   0.00001   0.00006   0.00000000029331   0.75982   0.02439   0.21579
 0 708 2693156.5    3.7   0.00000   0.00001   0.00006   0.00000000036769   0.80025   0.03149   0.16826
 0 709 2693460.4    3.7   0.00714 305.26289   1.28044   0.00744877322136   0.92609   0.03958   0.03432
 0 710 2693491.9    3.7   0.00019   8.24305   0.06084   0.00020308439658   0.92100   0.03898   0.04001
 0 711 2693516.5    3.7   0.00000   0.00001   0.00009   0.00000000061840   0.83005   0.02132   0.14863
 0 712 2693516.5    3.7   0.00000   0.00000   0.00005   0.00000000012803   0.57779   0.00021   0.42200
 0 713 2693516.5    3.7   0.00000   0.00505   0.00002   0.00000015069715   0.93727   0.03251   0.03021
 0 714 2693593.7    3.7   0.00000   0.00000   0.00001   0.00000000002731   0.57246   0.00869   0.41885
 0 715 2693593.7    3.7   0.00000   0.00000   0.00001   0.00000000026030   0.95610   0.01907   0.02483
 0 716 2693593.7    3.7   0.00000   0.00079   0.00043   0.00000003887378   0.96859   0.02029   0.01112
 0 717 2693594.9    3.7   0.00003   1.01764   0.10835   0.00003588864887   0.89817   0.02631   0.07552
 0 718 2693800.4    3.7   0.00000   0.00497   0.00185   0.00000002821534   0.75811   0.17621   0.06568
 0 719 2693800.4    3.7   0.00000   0.00000   0.00000   0.00000000000093   0.82508   0.09634   0.07858
 0 720 2693800.4    3.7   0.00000   0.00000   0.00000   0.00000000000102   0.83993   0.09621   0.06386
 0 721 2693800.5    3.7   0.00000   0.03697   0.00165   0.00000022310513   0.77119   0.15403   0.07478
 0 722 2693977.6    3.7   0.00013   2.67916   0.42376   0.00013273637054   0.97079   0.02007   0.00914
 0 723 2694023.2    3.7   0.00000   0.00002   0.00002   0.00000000202874   0.97923   0.01050   0.01028
 0 724 2694023.2    3.7   0.00000   0.00000   0.00000   0.00000000000485   0.31393   0.00386   0.68221
 0 725 2694023.2    3.7   0.00000   0.00000   0.00005   0.00000000006499   0.30312   0.00423   0.69264
 0 726 2694026.5    3.7   0.00005   0.13451   0.00364   0.00005078912064   0.97595   0.00260   0.02145
 0 727 2694069.1    3.7   0.00000   0.00452   0.00000   0.00000011809426   0.90654   0.03644   0.05702
 0 728 2694069.1    3.7   0.00000   0.00000   0.00005   0.00000000010613   0.49137   0.00837   0.50026
 0 729 2694069.1    3.7   0.00000   0.00000   0.00008   0.00000000023966   0.64649   0.01480   0.33870
 0 730 2694329.8    3.7   0.00000   0.00080   0.00063   0.00000001605959   0.91058   0.04992   0.03949
 0 731 2694329.8    3.7   0.00000   0.00000   0.00006   0.00000000131005   0.95331   0.00206   0.04463
 0 732 2694329.8    3.7   0.00000   0.00000   0.00008   0.00000000157185   0.95002   0.00175   0.04823
 0 733 2694450.1    3.7   0.00000   0.16410   0.01996   0.00000208374777   0.90093   0.07808   0.02099
 0 734 2694450.7    3.7   0.00000   0.00000   0.00001   0.00000000003569   0.69666   0.01876   0.28457
 0 735 2694450.7    3.7   0.00000   0.00000   0.00004   0.00000000004644   0.14050   0.00357   0.85593
 0 736 2694450.7    3.7   0.00000   0.00015   0.00015   0.00000001530833   0.98049   0.00950   0.01001
 0 737 2694624.0    3.7   0.00001   0.46992   0.01314   0.00000935507497   0.89128   0.04733   0.06139
 0 738 2694626.1    3.7   0.00000   0.00023   0.00019   0.00000000066502   0.36366   0.34338   0.29296
 0 739 2694626.1    3.7   0.00000   0.00000   0.00000   0.00000000000544   0.58875   0.01819   0.39306
 0 740 2694626.1    3.7   0.00000   0.00000   0.00000   0.00000000000240   0.77209   0.17700   0.05091
 0 741 2694903.4    3.7   0.00002   0.16591   0.00581   0.00001559011988   0.97017   0.01044   0.01940
 0 742 2694905.2    3.7   0.00000   0.00000   0.00000   0.00000000011430   0.96771   0.01421   0.01808
 0 743 2694905.2    3.7   0.00000   0.00000   0.00000   0.00000000000994   0.96793   0.02051   0.01156
 0 744 2694905.2    3.7   0.00000   0.00011   0.00029   0.00000001165704   0.96579   0.00904   0.02517
 0 745 2695585.2    3.7   0.00000   0.01183   0.00615   0.00000497633968   0.99604   0.00238   0.00157
 0 746 2695585.3    3.7   0.00000   0.00000   0.00000   0.00000000001035   0.82499   0.00669   0.16833
 0 747 2695585.3    3.7   0.00000   0.00000   0.00000   0.00000000000869   0.83549   0.00654   0.15798
 0 748 2695585.3    3.7   0.00000   0.00002   0.00017   0.00000000867099   0.97749   0.00280   0.01970
 0 749 2696073.1    3.7   0.00269  92.97435   0.18639   0.00277999105511   0.93520   0.03237   0.03243
 0 750 2696659.0    3.7   0.00000   0.00068   0.00073   0.00000002009936   0.92991   0.03390   0.03619
 0 751 2696659.0    3.7   0.00000   0.00001   0.00030   0.00000000140478   0.77958   0.00701   0.21341
 0 752 2696659.0    3.7   0.00000   0.00001   0.00009   0.00000000070231   0.86134   0.01620   0.12246
 0 753 2700854.2    3.7   0.00000   0.00001   0.00001   0.00000000041318   0.93347   0.03200   0.03453
 0 754 2700854.2    3.7   0.00000   0.00000   0.00000   0.00000000001412   0.83022   0.13082   0.03896
 0 755 2700854.2    3.7   0.00000   0.00000   0.00001   0.00000000001819   0.57156   0.00011   0.42833
 0 756 2700855.5    3.7   0.00002   1.93486   0.00285   0.00001694029788   0.83394   0.10772   0.05834
 0 757 2702956.7    3.7   0.00000   0.00002   0.00009   0.00000000125663   0.91874   0.01360   0.06767
 0 758 2702956.7    3.7   0.00000   0.00000   0.00001   0.00000000001445   0.34028   0.00340   0.65632
 0 759 2702956.7    3.7   0.00000   0.00000   0.00003   0.00000000009319   0.71859   0.00848   0.27293
 0 760 2702957.4    3.7   0.00003   1.28615   0.00016   0.00002700430335   0.87958   0.04407   0.07634
 0 761 2705541.1    3.7   0.00000   0.00000   0.00000   0.00000000000680   0.91689   0.01466   0.06846
 0 762 2705541.1    3.7   0.00000   0.00000   0.00000   0.00000000000499   0.42392   0.00055   0.57553
 0 763 2705541.1    3.7   0.00000   0.00000   0.00000   0.00000000000497   0.86648   0.00580   0.12772
 0 764 2705541.4    3.7   0.00000   0.11170   0.00020   0.00000420300140   0.91330   0.02503   0.06167
 0 765 2706710.9    3.7   0.00000   0.00000   0.00000   0.00000000000082   0.86553   0.01532   0.11915
 0 766 2706710.9    3.7   0.00000   0.00000   0.00000   0.00000000000043   0.32790   0.00904   0.66306
 0 767 2706710.9    3.7   0.00000   0.00001   0.00000   0.00000000009826   0.89971   0.07796   0.02233
 0 768 2706710.9    3.7   0.00000   0.00032   0.00273   0.00000007024624   0.95648   0.00459   0.03893
 0 769 2707053.3    3.7   0.00000   0.00000   0.00000   0.00000000014075   0.94789   0.01828   0.03384
 0 770 2707053.3    3.7   0.00000   0.00000   0.00000   0.00000000000101   0.84629   0.01725   0.13646
 0 771 2707053.3    3.7   0.00000   0.00000   0.00000   0.00000000000068   0.75056   0.01774   0.23171
 0 772 2707053.5    3.7   0.00000   0.03595   0.00080   0.00000419054516   0.93492   0.00805   0.05704
 0 773 2707977.8    3.7   0.00000   0.00004   0.00002   0.00000000046281   0.87432   0.08970   0.03598
 0 774 2707977.8    3.7   0.00000   0.00000   0.00000   0.00000000000052   0.90410   0.06094   0.03496
 0 775 2707977.8    3.7   0.00000   0.00000   0.00000   0.00000000000041   0.91266   0.05344   0.03390
 0 776 2707977.8    3.7   0.00000   0.02052   0.00001   0.00000062061382   0.91560   0.03118   0.05321
 0 777 2715650.9    3.7   0.00000   0.00000   0.00002   0.00000000002521   0.37823   0.01844   0.60334
 0 778 2715650.9    3.7   0.00000   0.00000   0.00057   0.00000000241318   0.76161   0.00167   0.23672
 0 779 2715650.9    3.7   0.00000   0.00000   0.00002   0.00000000029578   0.92449   0.01277   0.06274
 0 780 2715880.7    3.7   0.00079  32.03249   0.05807   0.00082562258122   0.95910   0.03872   0.00219
 0 781 2720558.4    3.7   0.00000   0.00000   0.00010   0.00000000049065   0.78456   0.00638   0.20906
 0 782 2720558.4    3.7   0.00000   0.00000   0.00013   0.00000000041351   0.67870   0.00401   0.31729
 0 783 2720558.4    3.7   0.00000   0.00002   0.00000   0.00000000051554   0.96052   0.03728   0.00220
 0 784 2720746.2    3.7   0.00024   8.24388   6.80082   0.00025239828675   0.91660   0.03183   0.05157
 0 785 2723566.9    3.7   0.00000   0.00000   0.00000   0.00000000001427   0.87033   0.07588   0.05379
 0 786 2723566.9    3.7   0.00000   0.00000   0.00000   0.00000000000093   0.90189   0.01069   0.08742
 0 787 2723566.9    3.7   0.00000   0.00000   0.00000   0.00000000000098   0.90443   0.00960   0.08596
 0 788 2723566.9    3.7   0.00000   0.00135   0.00008   0.00000011191647   0.91564   0.01129   0.07307
 0 789 2724618.7    3.7   0.00000   0.00000   0.00001   0.00000000003105   0.61275   0.01386   0.37338
 0 790 2724618.7    3.7   0.00000   0.00000   0.00000   0.00000000000297   0.29549   0.00210   0.70242
 0 791 2724618.7    3.7   0.00000   0.00000   0.00000   0.00000000000313   0.29751   0.00103   0.70146
 0 792 2724618.7    3.7   0.00000   0.00018   0.00001   0.00000017061603   0.90295   0.00091   0.09614
 0 793 2724743.1    3.7   0.00000   0.00000   0.00001   0.00000000001309   0.57328   0.01655   0.41017
 0 794 2724743.1    3.7   0.00000   0.00000   0.00000   0.00000000001363   0.69122   0.02479   0.28399
 0 795 2724743.1    3.7   0.00000   0.01128   0.00066   0.00000053726779   0.84677   0.01820   0.13503
 0 796 2724743.2    3.7   0.00000   0.00000   0.00002   0.00000000018572   0.87964   0.01992   0.10044
 0 797 2726174.9    3.7   0.00000   0.00000   0.00000   0.00000000000610   0.78018   0.00686   0.21296
 0 798 2726174.9    3.7   0.00000   0.00000   0.00000   0.00000000000579   0.76639   0.00754   0.22607
 0 799 2726174.9    3.7   0.00000   0.00000   0.00001   0.00000000006447   0.80904   0.00687   0.18409

Done


Timings within the ROCIS_SOC part:
          calculation preparation:        0.040 Sec.  (  0.0%)
          SOC integral transformation:  102.181 Sec.  ( 82.4%)
          SOC calculation:                0.844 Sec.  (  0.7%)
          Density formation:             20.901 Sec.  ( 16.9%)
          TOTAL ROCIS SOC TIME:         123.966 Sec.  (100.0%)

          This is  2 minutes and 4.0 seconds.




-------------------------------------------------------------------------------
                          DFT DISPERSION CORRECTION                            
                                                                               
                              DFTD3 V3.1  Rev 1                                
                          USING Becke-Johnson damping                          
-------------------------------------------------------------------------------
The WB97M-D3BJ functional is recognized
Active option DFTDOPT                   ...         4   

molecular C6(AA) [au] = 22589.106759 


            DFT-D V3
 parameters
 s6 scaling factor         :     1.0000 
 a1 scaling factor         :     0.5660 
 s8 scaling factor         :     0.3908 
 a2 scaling factor         :     3.1280 
 ad hoc parameters k1-k3   :    16.0000     1.3333    -4.0000 

 Edisp/kcal,au: -51.808588435840  -0.082562232207 
 E6   /kcal   : -41.731827665 
 E8   /kcal   : -10.076760771 
 % E8         :  19.449981315 

-------------------------   ----------------
Dispersion correction           -0.082562232
-------------------------   ----------------


-------------------------   --------------------
FINAL SINGLE POINT ENERGY     -1186.550160635662
-------------------------   --------------------


                            ***************************************
                            *     ORCA property calculations      *
                            ***************************************

                                    ---------------------
                                    Active property flags
                                    ---------------------
   (+) Dipole Moment


------------------------------------------------------------------------------
                       ORCA ELECTRIC PROPERTIES CALCULATION
------------------------------------------------------------------------------

Dipole Moment Calculation                       ... on
Quadrupole Moment Calculation                   ... off
Polarizability Calculation                      ... off
GBWName                                         ... AB_4.0A.gbw
Electron density file                           ... AB_4.0A.scfp
The origin for moment calculation is the CENTER OF MASS  = (-0.495886,  3.567918 -4.242861)

-------------
DIPOLE MOMENT
-------------
                                X             Y             Z
Electronic contribution:     -1.08586       0.26021      -4.84341
Nuclear contribution   :      1.75884      -1.20973       5.02942
                        -----------------------------------------
Total Dipole Moment    :      0.67298      -0.94952       0.18601
                        -----------------------------------------
Magnitude (a.u.)       :      1.17860
Magnitude (Debye)      :      2.99576



--------------------
Rotational spectrum 
--------------------
 
Rotational constants in cm-1:     0.007814     0.004928     0.003403 
Rotational constants in MHz :   234.245671   147.745078   102.021787 

 Dipole components along the rotational axes: 
x,y,z [a.u.] :    -0.107990    -0.976910    -0.650446 
x,y,z [Debye]:    -0.274488    -2.483107    -1.653301 

 

Timings for individual modules:

Sum of individual times         ...      382.506 sec (=   6.375 min)
GTO integral calculation        ...       24.646 sec (=   0.411 min)   6.4 %
Relativistic integrals          ...       15.783 sec (=   0.263 min)   4.1 %
SCF iterations                  ...       61.448 sec (=   1.024 min)  16.1 %
                             ****ORCA TERMINATED NORMALLY****
TOTAL RUN TIME: 0 days 0 hours 6 minutes 29 seconds 693 msec
